1741
Atoms. Timestep: 1305
2 -0.100937 -0.130634 -0.189024
1 -0.119339 1.77864 0.228185
1 -0.111804 -0.134726 1.8155
2 -0.117182 1.74532 2.24277
1 1.81447 1.73023 2.62323
1 -0.0275682 1.97503 4.20836
2 1.78887 1.56232 4.55829
1 1.81846 -0.207356 5.04802
1 1.79211 1.96116 6.44133
2 1.80955 -0.100496 6.99805
1 -0.0820985 -0.0910479 7.40202
1 1.79387 -0.0931654 9.00154
2 -0.112022 -0.130394 9.25655
1 -0.116396 1.59046 10.0528
2 -0.126186 1.96387 11.935
1 1.7281 1.6763 12.2597
1 -0.123075 1.76202 13.8516
2 1.74319 1.75671 14.2974
1 1.69408 -0.26162 14.9192
1 1.76639 1.90234 16.2626
2 1.76944 0.132804 16.7748
1 -0.0950959 -0.189132 17.0956
1 1.77856 -0.0988589 18.6781
2 -0.129991 -0.102588 19.0967
1 -0.203034 1.84421 19.5059
1 -0.119704 -0.0777068 21.0746
2 -0.156961 1.80896 21.5194
1 1.78664 1.83839 21.8685
1 -0.0301819 1.79546 23.4706
2 1.81237 1.79839 23.908
1 1.79931 -0.110554 24.3383
1 1.77017 1.83432 25.92
2 1.79199 -0.110362 26.3176
1 -0.110879 -0.108187 26.7379
1 1.83954 -0.16349 28.3286
2 -0.153626 3.73502 0.00866959
1 -0.140075 5.75619 0.440946
1 -0.114355 3.61044 1.86123
2 -0.134704 5.38181 2.3253
1 1.69857 5.69989 2.66183
1 -0.113683 5.56913 4.24541
2 1.74043 5.85115 4.56865
1 1.78632 5.43932 6.44863
2 1.79162 3.69969 7.24721
1 -0.109119 3.71149 7.52009
1 1.76992 3.69882 9.13109
2 -0.128119 3.69525 9.4922
1 -0.109756 5.81412 10.0462
1 -0.123685 3.70204 11.3985
2 -0.0651857 5.43763 11.9449
1 1.77839 5.68669 12.2815
1 -0.102137 5.63527 13.8819
2 1.83244 5.63595 14.2777
1 1.75145 3.71845 14.6433
1 1.88864 5.58003 16.2351
2 1.80025 3.74491 16.6902
1 -0.334827 3.69271 17.2977
1 1.87958 3.71999 18.6534
2 0.114868 3.70019 19.1633
1 -0.207266 5.55383 19.5595
1 -0.236757 3.7131 21.0786
2 0.0273909 5.60863 21.4386
1 1.77943 5.62589 21.955
1 -0.306458 5.49036 23.2992
2 1.7566 5.60613 23.8856
1 1.83376 3.72789 24.3475
1 1.7921 5.57668 25.9029
2 2.11678 3.69465 26.2582
1 1.52563 3.6802 28.069
2 -0.153867 7.49968 -0.390059
1 -0.199052 9.20554 0.466507
2 0.177658 9.68378 2.18999
1 1.89593 9.36934 2.60813
1 -0.199862 9.2905 3.93878
2 1.75406 9.44706 4.6086
1 1.77505 7.60843 5.07772
1 1.75674 9.44799 6.64221
2 1.80769 7.50144 7.01292
1 -0.111054 7.49329 7.35106
1 1.78684 7.5047 8.99323
2 -0.120371 7.53247 9.22999
1 -0.158107 9.22731 10.0989
2 -0.137518 9.67597 11.9576
1 1.79341 9.35416 12.2422
1 -0.027835 9.42949 13.8323
2 1.87633 9.41615 14.2367
1 1.787 7.53049 14.7031
1 1.89654 9.50976 16.1941
2 1.68319 7.53381 16.7119
1 -0.119978 8.27282 17.1362
1 1.79832 7.48366 18.7285
2 -0.128096 7.48312 18.9843
1 -0.0482192 9.35177 19.6141
1 -0.275904 7.4953 21.1663
2 0.123672 9.3959 21.4452
1 1.8699 9.40034 21.9458
1 -0.291485 9.5544 23.2484
2 1.76995 9.43177 23.8993
1 1.81986 7.49451 24.3134
1 1.7921 9.41437 25.8722
2 1.82514 7.51728 26.3027
1 -0.106885 7.49971 26.6678
1 1.70513 7.63237 28.2496
2 -0.114416 11.3396 -0.201036
1 -0.150615 13.2612 0.186019
1 -0.0112298 11.4047 1.72199
2 -0.229196 13.2772 2.23166
1 1.81087 13.2181 2.64428
1 -0.0757824 13.3557 4.20001
2 1.80359 13.2549 4.63404
1 1.76865 11.3306 5.02856
1 1.81186 13.2502 6.63244
2 1.7929 11.3483 7.04932
1 -0.098694 11.3066 7.52349
1 1.80736 11.3229 9.06793
2 -0.10463 11.3215 9.45871
1 -0.126435 13.2603 9.85841
1 0.0438359 11.4009 11.3777
2 -0.199631 13.2763 11.9061
1 1.83642 13.2749 12.4995
1 -0.21529 13.2215 13.8807
2 1.53775 13.2764 14.4131
1 1.87241 11.3491 14.5419
1 2.59189 13.2349 15.9951
2 1.84164 11.4585 16.4415
1 0.0801572 11.2909 17.3384
2 -0.392831 11.0404 19.088
1 -0.121885 11.6088 20.8392
2 -0.177673 13.2865 21.5697
1 -0.138522 13.2434 23.3836
2 1.73359 13.2422 24.1282
1 1.761 11.3464 24.3223
1 1.78607 13.2321 26.001
2 1.79783 11.3102 26.3395
1 -0.101282 11.2893 26.7516
1 1.79019 11.2662 28.3363
2 -0.098103 15.1717 -0.199805
1 -0.182441 17.1074 0.213928
1 0.0820713 15.1622 1.7325
2 -0.158396 17.111 2.22926
1 1.77943 17.0949 2.64218
1 -0.0946335 17.1026 4.25224
2 1.79778 17.0721 4.63387
1 1.81712 15.1642 5.05209
1 1.79808 17.0667 6.62563
2 1.81478 15.1629 7.04496
1 -0.104895 15.1463 7.44924
1 1.82193 15.1402 9.04081
2 -0.0983669 15.1461 9.41417
1 -0.119745 17.0709 9.75998
1 0.0332113 15.1866 11.3747
2 -0.110382 17.0694 11.6356
1 1.60656 17.0728 12.4471
2 1.96584 17.0551 14.3361
1 1.72945 15.1977 14.6332
1 1.77312 17.0412 16.2482
2 1.78435 15.0355 16.6141
1 -0.136542 15.2902 17.1469
1 1.76844 15.0937 18.5706
2 -0.118523 15.4463 19.147
1 -0.0886824 17.2475 19.7294
1 0.565533 14.7262 20.775
2 0.0627084 16.553 21.5484
1 1.57118 17.8147 21.8589
1 -0.130544 16.9693 23.483
2 1.75436 17.0631 23.8171
1 1.7478 15.1203 24.3811
1 1.80256 17.0618 25.9091
2 1.78803 15.1684 26.3396
1 -0.137793 15.1779 26.7434
1 1.80273 15.1707 28.3001
2 -0.125983 18.9935 -0.203122
1 -0.135362 20.8873 0.223055
1 -0.0704353 19.041 1.76967
2 0.144241 20.8943 2.14358
1 1.9065 20.9349 2.65831
1 -0.264852 20.8732 4.02577
2 1.7896 20.8761 4.6181
1 1.77531 18.9894 5.03844
1 1.78515 20.8717 6.6209
2 1.8111 18.964 7.04051
1 -0.102484 18.9758 7.43943
1 1.8071 18.9741 9.03129
2 -0.105913 18.9881 9.41742
1 -0.101602 20.8713 9.83432
1 -0.101935 18.9658 11.4146
2 -0.100893 20.8417 11.8548
1 1.80032 20.8987 12.3034
1 -0.112928 20.9016 13.864
2 1.77711 20.878 14.288
1 1.7193 18.9127 14.6514
1 1.81525 20.7797 16.2394
2 1.79561 18.9229 16.6647
1 -0.120474 18.985 17.0472
1 1.80456 18.9459 18.659
2 -0.108245 18.9858 18.9318
1 -0.123163 20.7524 19.6685
2 -0.10016 21.1017 21.5775
1 1.75947 20.8639 21.9138
1 -0.107768 20.8847 23.5163
2 1.79549 20.877 23.93
1 1.78592 18.9833 24.3626
1 1.80302 20.8981 25.9266
2 1.83979 18.9715 26.3293
1 -0.0142411 18.9886 26.7812
1 1.8134 18.9716 28.3504
2 -0.131404 22.7899 -0.196906
1 -0.130053 24.6855 0.228892
1 -0.177991 22.7455 1.80655
2 -0.121975 24.6674 2.2142
1 1.80489 24.6894 2.63914
1 -0.0956638 24.5798 4.17435
2 1.77964 24.6458 4.65611
1 1.7817 22.7592 5.04879
1 1.78301 24.6828 6.65776
2 1.79156 22.7794 7.04676
1 -0.111768 22.8119 7.47326
1 1.77715 22.8128 9.04432
2 -0.116801 22.8056 9.46749
1 -0.133822 24.8666 10.0497
1 -0.102934 22.7047 11.4194
2 -0.1359 24.4611 11.9249
1 1.7323 24.7861 12.1744
1 -0.0867407 24.7143 13.8259
2 1.91214 24.715 14.0606
1 1.69323 22.9417 14.9063
2 1.82626 22.5392 16.7713
1 0.00414362 22.8373 17.1416
1 1.79428 22.7665 18.703
2 -0.145386 22.7902 19.1049
1 -0.146375 24.7122 19.4823
1 -0.120861 22.8757 21.0587
2 -0.107568 24.7528 21.4982
1 1.79022 24.7155 21.9187
1 -0.112789 24.7184 23.5164
2 1.79605 24.7047 23.9172
1 1.78762 22.7921 24.3181
1 1.78991 24.7028 25.9106
2 1.78298 22.8043 26.319
1 -0.126611 22.7793 26.7464
1 1.82166 22.8438 28.342
2 3.70228 0.1755 -0.264248
1 3.74043 1.96566 0.213951
1 3.69233 -0.256943 1.61181
2 3.67904 1.80045 2.20129
1 5.50098 1.74569 2.72135
1 3.64074 1.86507 4.25551
2 5.57717 1.84247 4.65148
1 5.65458 -0.0688822 5.00756
1 5.62039 1.79163 6.61692
2 5.61571 -0.104593 7.03209
1 3.69331 -0.085782 7.44387
1 5.61091 -0.12188 9.02412
2 3.69879 -0.117039 9.44234
1 3.72219 1.80514 9.87013
1 3.73367 -0.0867853 11.3989
2 3.6875 1.784 11.8673
1 5.77124 1.78882 12.4622
1 3.58703 1.79565 13.8243
2 5.35167 1.75234 14.3439
1 5.80304 -0.049159 14.6958
1 5.44551 1.73895 16.2675
2 5.59933 -0.139018 16.6902
1 3.64035 -0.196978 17.0765
1 5.59765 -0.106728 18.6777
2 3.69584 -0.123169 19.0925
1 3.68637 1.79188 19.5012
1 3.69063 -0.120071 21.0853
2 3.65441 1.80878 21.4893
1 5.49121 1.77329 21.905
1 3.67294 1.79559 23.5158
2 5.58697 1.77848 23.8611
1 5.66933 -0.114897 24.3244
1 5.49978 1.82026 25.8314
2 5.71852 -0.122113 26.3456
1 3.70682 -0.1015 26.7515
1 5.55956 -0.151539 28.3682
2 3.38685 3.84759 -0.129507
1 4.49704 5.61782 0.175082
1 3.62034 3.71907 1.82375
2 3.80827 5.62335 2.13959
1 5.57208 6.11989 2.90898
1 3.55049 5.47283 4.24108
2 5.36216 5.55727 4.65971
1 5.702 3.70533 5.10272
1 5.59669 5.61568 6.59552
2 5.61086 3.70164 7.06454
1 3.6919 3.7056 7.47886
1 5.60052 3.70516 9.04962
2 3.70564 3.70665 9.48003
1 3.70062 5.61665 9.86907
1 3.71016 3.69227 11.481
2 3.69394 5.62601 11.851
1 5.61833 5.60595 12.2932
1 3.74945 5.65238 13.8432
2 5.63024 5.34008 14.1864
1 5.75205 3.57269 14.7031
1 5.52822 5.87877 15.9948
2 5.73989 3.69069 16.6991
1 3.76694 3.72791 17.0606
1 5.60576 3.71664 18.6901
2 3.74603 3.70011 19.0782
1 3.71806 5.61611 19.5152
1 3.76744 3.74824 21.0902
2 3.52913 5.61559 21.4355
1 3.88217 5.60293 23.3295
2 5.62363 5.61465 24.0711
1 5.62193 3.7062 24.2449
1 5.59772 5.61727 25.9359
2 5.60622 3.70283 26.1265
1 3.88714 3.72601 26.9254
2 3.47811 7.3814 -0.109194
1 3.82231 9.36131 0.219058
1 3.65968 7.54204 1.80554
2 3.78628 9.42019 2.24069
1 5.76517 9.51205 2.86884
1 3.63426 9.4179 4.22911
2 5.39262 9.41012 4.7303
1 5.74705 7.54027 5.072
1 5.60385 9.41709 6.6335
2 5.62344 7.50898 7.05147
1 3.69874 7.49422 7.43281
1 5.61062 7.5517 9.04052
2 3.69775 7.53137 9.45323
1 3.69664 9.45089 9.89034
1 3.74 7.539 11.4574
2 3.72094 9.46883 11.8473
1 5.67723 9.52767 12.2729
1 3.794 9.43216 13.8347
2 5.64386 9.40609 14.1473
1 5.54379 9.41104 16.0104
2 5.58591 7.57242 16.8615
1 3.68867 7.55687 17.1234
1 5.59576 7.5533 18.7388
2 3.68855 7.53267 19.1047
1 3.6557 9.45376 19.4904
1 3.78224 7.48353 21.0945
2 3.72537 9.38704 21.5072
1 5.6025 9.46608 21.9119
1 3.70811 9.42945 23.5294
2 5.60726 9.44698 23.8973
1 5.60885 7.51804 24.2688
1 5.6116 9.42808 25.8833
2 5.60263 7.53195 26.1525
1 3.84262 7.49546 26.8985
2 3.70324 11.3133 -0.192927
1 3.71439 13.2448 0.221426
1 3.71743 11.3136 1.79277
2 3.70682 13.2349 2.21591
1 5.62131 13.2915 2.63894
1 3.72382 13.2518 4.22409
2 5.61638 13.2385 4.64043
1 5.66689 11.2815 5.02146
1 5.60574 13.1548 6.59394
2 5.60644 11.2997 7.02853
1 3.70042 11.3085 7.44178
1 5.62972 11.3263 9.01875
2 3.73192 11.3229 9.42526
1 3.69835 13.2498 9.7231
1 3.81008 11.4504 11.5069
2 3.34408 13.2629 11.5091
2 6.00881 13.4945 14.5729
1 5.59179 12.963 16.2167
2 5.57072 11.1811 16.9337
1 3.58359 11.2678 17.3649
1 5.70033 11.3781 18.7844
2 3.91833 11.3621 19.214
1 3.59517 13.3651 19.7031
1 3.60388 11.2783 21.0699
2 3.93429 13.0057 21.5022
1 5.66572 13.3217 21.9182
1 3.4737 13.2908 23.2685
2 5.61459 13.2773 23.9022
1 5.56762 11.3705 24.3002
1 5.58842 13.2596 25.8883
2 5.6057 11.3373 26.3096
1 3.69843 11.3327 26.7299
1 5.60132 11.3393 28.3068
2 3.7171 15.1547 -0.188623
1 3.68974 17.05 0.226696
1 3.69631 15.1481 1.81523
2 3.68419 17.0538 2.2055
1 5.62117 17.0665 2.57896
1 3.70351 17.0642 4.19547
2 5.59552 17.0639 4.45577
1 5.60626 15.3224 5.23927
2 5.61067 14.9139 7.11803
1 3.75453 15.244 7.43867
1 5.62302 15.1347 9.0396
2 3.72664 15.1788 9.42837
1 3.69929 17.0437 9.92419
1 3.78804 15.0851 11.4914
2 3.71633 17.0372 11.8793
1 5.80649 17.0824 12.4644
1 3.70126 17.0721 13.7886
2 5.4304 17.0849 14.3542
1 5.68124 15.2319 14.7103
1 5.66688 17.066 16.2739
2 5.64954 15.1712 16.7165
1 3.73628 15.2649 17.0043
1 5.5039 15.0888 18.6584
2 3.62557 15.1492 18.8862
1 3.69308 16.8874 19.7154
2 3.5498 17.3284 21.601
1 5.75797 17.0328 22.0919
1 3.63479 17.1148 23.508
2 5.38876 17.0521 23.9921
1 5.64749 15.1827 24.3073
1 5.65164 17.0578 25.901
2 5.61963 15.1601 26.3213
1 3.719 15.1603 26.7293
1 5.65052 15.2126 28.3269
2 3.72617 18.9243 -0.17211
1 3.72767 20.7912 0.247139
1 3.70701 18.9529 1.8374
2 3.74819 20.8949 2.20819
1 5.61033 20.8545 2.62477
1 3.73785 20.8756 4.23442
2 5.61762 20.8672 4.65101
1 5.60227 18.812 5.23185
1 5.5895 20.9708 6.60998
2 5.60251 19.2057 7.1193
1 3.74274 18.8979 7.44589
1 5.59491 18.9742 9.04697
2 3.69646 18.9528 9.46399
1 3.69772 20.8633 9.85475
1 3.70036 18.9453 11.4626
2 3.6998 20.8739 11.8645
1 5.60195 20.8838 12.2794
1 3.69216 20.8556 13.8847
2 5.62184 20.8633 14.2744
1 5.68291 18.9397 14.6853
1 5.57726 20.8724 16.2779
2 5.61982 18.9721 16.6903
1 3.71034 18.9137 17.0906
1 5.60446 18.9471 18.6817
2 3.7095 18.9566 19.0911
1 3.67988 20.9028 19.4548
1 3.7893 19.0595 21.0321
2 3.65149 20.9164 21.4913
1 5.50341 20.9086 21.9248
1 3.68395 20.8656 23.5127
2 5.74623 20.8675 23.8736
1 5.59127 18.9215 24.3406
1 5.63891 20.8804 25.8899
2 5.58129 18.9739 26.322
1 3.71694 18.9699 26.7583
1 5.65842 18.8913 28.3462
2 3.69961 22.5551 -0.262551
1 3.71394 22.9685 1.60993
2 3.70244 24.7125 2.41307
1 5.60011 24.7238 2.64838
1 3.70628 24.6913 4.29235
2 5.62555 24.7181 4.64882
1 5.61657 22.8073 5.01942
1 5.59672 24.7299 6.61841
2 5.59506 22.8418 7.03838
1 3.69123 22.7995 7.46437
1 5.59567 22.7851 9.04978
2 3.69023 22.7922 9.45199
1 3.70683 24.7048 9.85472
1 3.68185 22.7755 11.4009
2 3.70334 24.7147 11.9306
1 5.62934 24.6981 12.2461
1 3.71321 25.4676 13.8038
2 5.50659 24.7078 14.2381
1 5.71919 22.7566 14.7204
1 5.56566 24.7053 16.2413
2 5.60598 22.7979 16.682
1 3.66338 22.8636 17.0834
1 5.60518 22.7815 18.6703
2 3.70436 22.8092 19.0927
1 3.69846 24.7052 19.502
1 3.6816 22.8025 21.081
2 3.70316 24.7035 21.4983
1 5.6282 24.6983 21.917
1 3.69747 24.7164 23.482
2 5.60418 24.7007 23.9093
1 5.54457 22.7943 24.3375
1 5.50854 24.6738 25.8772
2 5.60413 22.7872 26.3117
1 3.6881 22.7761 26.7558
1 5.57071 22.8635 28.3108
2 7.4987 -0.142825 -0.279366
1 7.34693 2.13981 0.518841
1 7.59863 -0.149918 1.77505
2 7.22819 1.56019 2.24734
1 7.8799 1.93144 3.92671
2 9.55279 1.55463 4.73408
1 9.34172 -0.222207 5.14312
1 9.33452 2.0078 6.50761
2 9.5284 -0.14267 7.09358
1 7.53986 -0.103807 7.45301
1 9.41553 -0.105436 9.06203
2 7.51532 -0.131865 9.42972
1 7.51067 1.79521 9.78478
1 7.51805 -0.103339 11.4264
2 7.52467 1.7906 11.6643
1 9.27405 1.78929 12.4719
2 9.70012 1.75839 14.3454
1 9.3783 -0.0922194 14.6587
1 9.52605 1.73201 16.2462
2 9.38959 -0.145358 16.6865
1 7.49993 -0.1317 17.0928
1 9.37479 -0.236684 18.6567
2 7.50866 -0.119858 19.0912
1 7.50681 1.78578 19.5431
1 7.57497 -0.0791908 21.1049
2 7.25509 1.80796 21.4118
1 7.53218 1.81435 23.2967
2 9.09123 1.82972 24.2106
1 9.34262 0.00597953 24.3106
1 9.57643 1.8269 25.9514
2 9.30009 -0.0903122 26.3744
1 7.50267 0.652592 26.8333
1 9.4108 -0.108638 28.3747
2 7.83666 3.71955 -0.363319
1 7.37173 5.42688 0.291406
2 7.31452 5.96727 2.09644
1 8.98725 5.37772 2.96845
2 9.60763 5.8771 4.61599
1 9.38911 5.45674 6.41081
2 9.38503 3.73105 7.278
1 7.50758 3.74016 7.48712
1 9.42317 3.72597 9.16021
2 7.49711 3.71069 9.46081
1 7.5062 5.6009 9.84395
1 7.50811 3.69389 11.4584
2 7.51885 5.5887 11.8449
1 9.41898 5.61956 12.2887
1 7.51968 5.76706 13.8769
2 9.42007 5.34119 14.1803
1 9.29302 3.57918 14.706
1 9.48464 5.88376 15.9853
2 9.2967 3.69888 16.6993
1 7.50013 4.48673 17.099
1 9.40947 3.84406 18.6559
2 7.51459 3.70995 18.9744
1 7.47548 5.62002 19.5711
1 7.49926 3.69571 21.1063
2 7.76006 5.58359 21.4401
1 9.49864 5.48169 21.9836
1 7.3575 5.603 23.3143
2 9.4269 5.57369 23.8991
1 9.45953 3.64619 24.2772
1 9.34669 5.60764 25.8304
2 9.45714 3.72468 26.4335
1 7.38522 3.68995 26.7528
1 9.50847 4.46842 28.2289
2 7.76658 7.46486 -0.116447
1 7.52411 9.45157 0.0568984
1 8.26635 7.54698 1.76121
2 7.52338 9.35492 1.97185
1 9.27111 9.55095 2.86319
2 9.65635 9.46715 4.7285
1 9.26969 7.62561 5.04472
1 9.48051 9.42168 6.65993
2 9.41196 7.50265 7.04587
1 7.51378 7.5138 7.45093
1 9.32922 7.50982 9.00569
2 7.47867 7.53678 9.46922
1 7.53252 9.6038 10.0406
1 7.51626 7.4507 11.4336
2 7.52336 9.22057 11.9043
1 9.38335 9.53352 12.2403
1 7.51291 9.42008 13.8546
2 9.38801 9.43153 14.1035
1 9.36905 9.2789 15.9188
2 9.37859 7.58624 16.8608
1 7.48197 7.57373 17.1043
1 9.3688 7.5112 18.7311
2 7.48992 7.5085 19.1387
1 7.52678 9.39829 19.5538
1 7.43625 7.4683 21.1477
2 7.50407 9.41803 21.5208
1 9.38883 9.53286 21.956
1 7.50543 9.42852 23.5193
2 9.42404 9.43699 23.9156
1 9.37373 7.50871 24.3181
1 9.40064 9.41456 25.9023
2 9.39927 7.50869 26.3053
1 7.34451 7.48395 26.9259
1 9.51114 7.50631 28.231
2 7.51577 11.3228 -0.226468
1 7.51699 13.1606 0.254025
1 7.5155 11.2923 1.7874
2 7.51645 13.2422 2.20689
1 9.40838 13.2752 2.63196
1 7.49553 13.2751 4.19524
2 9.40144 13.2285 4.63379
1 9.3639 11.3099 5.05087
1 9.40933 13.237 6.63532
2 9.43438 11.3472 7.02495
1 7.53131 11.3161 7.37931
1 9.45951 11.3906 9.03761
2 7.53769 11.3345 9.24545
1 7.48052 13.0494 10.0743
2 7.81876 13.4959 11.8192
1 9.51043 13.1622 12.3412
1 7.34991 12.9846 13.5262
2 9.36429 13.4468 14.2532
1 9.99885 13.3082 16.0115
2 9.56689 11.4633 16.8653
1 9.42171 11.3647 18.741
2 7.56895 11.3113 19.138
1 7.60713 13.2923 19.4764
1 7.48815 11.3553 21.0969
2 7.55095 13.263 21.5005
1 9.42497 13.2432 21.9265
1 7.52384 13.2396 23.5104
2 9.41917 13.2592 23.9155
1 9.43149 11.3425 24.3367
1 9.42588 13.253 25.9072
2 9.4279 11.3327 26.3203
1 7.51452 11.3643 26.7127
1 9.43375 11.3337 28.3117
2 7.51343 14.9168 -0.259943
1 7.51584 15.3185 1.61715
2 7.52895 17.0642 2.39966
1 9.40498 17.0572 2.62951
1 7.50794 17.0561 4.27096
2 9.54399 17.0589 4.62971
1 9.30652 15.1207 5.0833
1 9.46905 17.0659 6.62828
2 9.35474 15.1543 7.04675
1 7.47667 15.1757 7.47901
1 9.42474 15.0421 9.10182
2 7.51158 15.1324 9.45237
1 7.54353 17.0598 9.77541
1 7.45729 15.2177 11.4203
2 7.52458 17.093 11.6514
1 9.27879 17.0452 12.4377
2 9.67838 17.1153 14.325
1 9.21764 15.2832 14.5573
1 9.43128 17.0501 16.237
2 9.41528 15.0677 16.4497
1 7.65231 15.1532 17.2601
2 7.28148 15.1526 19.1391
1 7.5201 17.0332 19.4128
1 7.53743 15.1766 21.0411
2 7.51321 17.084 21.2971
1 9.18766 17.1117 22.1955
2 9.68891 17.0967 24.0107
1 9.35503 15.1913 24.297
1 9.47497 16.9782 25.8897
2 9.42273 15.1243 26.3227
1 7.51827 15.1618 26.7476
1 9.37574 15.2215 28.3304
2 7.54423 19.2223 -0.27679
1 7.52021 20.9688 0.245797
1 7.55247 18.7949 1.57717
2 7.51437 20.867 2.20115
1 9.39902 20.835 2.6187
1 7.47996 20.84 4.15623
2 9.40965 20.8741 4.72685
1 9.31108 18.9722 5.05119
1 10.1694 20.8664 6.5801
2 9.39659 19.0658 7.01474
1 7.42353 18.7957 7.47041
1 9.40785 19.0249 9.00605
2 7.5153 18.9715 9.43258
1 7.50472 20.8818 9.85017
1 7.52004 18.9728 11.421
2 7.52057 20.8778 11.8519
1 9.43204 20.8837 12.2781
1 7.52428 20.8661 13.8411
2 9.41573 20.8707 14.2706
1 9.35807 18.9402 14.6798
1 9.43118 20.8812 16.2551
2 9.41881 18.9769 16.6849
1 7.51549 18.9847 17.0825
1 9.41218 19.0626 18.6497
2 7.52269 18.9819 19.0529
1 7.50919 20.8864 19.53
1 7.56599 18.9755 20.9991
2 7.28804 20.8633 21.5142
1 7.61175 21.5936 23.2916
2 9.29426 20.8469 23.8683
1 9.5675 19.0999 24.6195
2 9.17861 18.6892 26.3564
1 7.45635 19.0407 26.7497
1 9.56639 18.9807 28.1257
2 7.5006 22.8197 -0.187073
1 7.51678 24.6729 0.256722
1 7.51523 22.7947 1.83665
2 7.5316 24.6887 2.21723
1 9.44738 24.6907 2.65267
1 7.50756 24.6875 4.19263
2 9.40795 24.6593 4.63679
1 9.41168 22.783 5.01588
1 9.32538 24.6149 6.6271
2 9.41769 22.6664 7.02085
1 7.47206 22.9003 7.50246
1 9.4234 22.7563 9.02629
2 7.5152 22.8017 9.45998
1 7.51981 24.7016 9.87489
1 7.52402 22.7865 11.4473
2 7.51985 24.7069 11.8607
1 9.41707 24.7163 12.2888
1 7.50419 24.6917 13.8474
2 9.41149 24.7075 14.2679
1 9.42031 22.7917 14.6817
1 9.43271 24.6955 16.2456
2 9.43435 22.7887 16.6775
1 7.52136 22.7909 17.1062
1 9.43635 22.7974 18.6692
2 7.52557 22.7919 19.0858
1 7.48064 24.704 19.5192
1 7.58745 22.7665 21.0374
2 7.52932 24.6957 21.5072
1 9.40475 24.6786 21.9126
1 7.54888 24.6958 23.5194
2 9.57447 24.7404 23.8785
1 9.44877 22.5398 24.6525
1 9.55824 24.7863 25.8057
2 9.43877 23.0705 26.432
1 7.5509 22.7106 26.7291
1 9.42992 22.8086 28.2998
2 11.3177 -0.13142 -0.189288
1 11.5491 1.73293 0.254906
1 11.1347 -0.0550747 1.74866
2 11.5328 1.81731 2.27633
1 13.3204 1.71427 2.70237
1 10.9345 2.62325 4.11455
2 13.1739 1.76683 4.62546
1 13.2826 -0.112185 5.14504
1 13.3883 1.86695 6.62408
2 13.1517 -0.0943656 7.08296
1 11.3131 0.662321 7.46515
1 13.2978 -0.0450972 9.07099
2 11.3526 -0.093123 9.35281
1 11.3494 1.82415 9.92318
1 11.3078 -0.0879794 11.4817
2 11.3247 1.80535 11.8769
1 13.2781 1.78462 12.2909
1 11.4722 1.8769 13.8512
2 13.2953 1.57294 14.2164
1 13.258 -0.195507 14.7223
1 13.2845 1.92995 16.114
2 13.0253 -0.0895217 16.6032
1 11.2735 -0.0947341 17.1309
1 13.594 -0.260867 18.3929
2 11.2784 -0.0289244 19.0982
1 12.0856 1.71728 19.348
1 11.2873 -0.0625339 21.0897
2 11.6634 1.79408 21.1312
1 13.1878 1.72657 22.1451
2 13.508 1.75584 24.0112
1 13.3721 -0.254954 24.5942
1 13.1676 1.86049 25.8515
2 12.9639 0.142683 26.3449
1 11.2502 -0.196467 26.7848
1 13.4656 -0.179248 28.0768
2 11.2651 3.69589 -0.226689
1 11.4874 5.63932 0.31684
1 11.0704 3.63209 1.7315
2 11.4413 5.57978 2.25561
1 13.2975 6.43017 2.61034
1 11.3483 5.65793 4.24163
2 13.2721 5.60838 4.55363
1 13.2893 3.68544 5.11498
1 13.3188 5.58056 6.65993
2 13.0188 3.70713 6.98714
1 11.2573 3.74515 7.5174
1 13.4954 3.61665 8.83851
2 11.3817 3.70304 9.46897
1 11.4463 5.62465 9.84658
1 11.323 3.70337 11.4538
2 11.3321 5.60478 11.8573
1 13.1944 5.57516 12.2634
1 11.3036 5.58314 13.818
2 13.3865 5.83898 14.2891
1 14.102 5.8386 16.2732
2 13.2718 3.84938 16.8522
1 11.2932 3.59789 17.1264
1 13.2647 3.85511 18.7214
2 11.31 3.58083 19.1094
1 11.3585 5.57319 19.4899
1 11.2987 3.6429 21.1462
2 11.3707 5.69748 21.4762
1 13.2772 5.49041 21.9547
1 11.3534 5.66141 23.5119
2 13.2399 5.58856 23.9092
1 13.2247 3.66596 24.2965
1 13.1868 5.64951 25.8607
2 13.3565 3.7298 26.3168
1 11.3833 3.73786 26.6809
1 13.2109 3.69413 28.2503
2 11.3275 7.52272 -0.178674
1 11.3189 9.43627 0.249691
1 11.1607 7.5385 1.8268
2 11.2992 9.43785 2.242
1 13.2502 9.45761 2.57441
1 11.4182 9.40364 4.20203
2 13.2808 9.42739 4.60749
1 13.2318 7.51453 5.03381
1 13.2428 9.41839 6.62316
2 13.2535 7.50122 6.88215
1 11.4728 7.47608 7.61998
2 11.0899 7.46078 9.53119
1 11.3998 9.28258 9.8722
1 11.2926 7.51083 11.4745
2 11.3385 9.46201 11.8351
1 13.2161 9.46047 12.2948
1 11.2408 9.48537 13.8323
2 13.2326 9.46525 14.2659
1 13.069 7.63168 14.6752
1 13.4586 9.32313 16.2829
2 12.9784 7.34749 16.5763
1 11.2431 7.56277 17.1927
1 13.4657 7.47078 18.436
2 11.3452 7.51955 19.1957
1 11.3512 9.4324 19.5322
1 12.1163 7.50689 20.9877
2 11.3388 9.31785 21.4856
1 13.27 9.54379 21.9682
1 11.3323 9.38678 23.4966
2 13.2442 9.44043 23.9222
1 13.2862 7.52828 24.3211
1 13.2712 9.41836 25.9145
2 13.2601 7.52297 26.3209
1 11.332 7.52225 26.6724
1 13.1683 7.54231 28.2773
2 11.342 11.3365 -0.189611
1 11.319 13.2409 0.208424
1 11.3082 11.3369 1.81242
2 11.323 13.2459 2.22209
1 13.2279 13.2419 2.62217
1 11.3177 13.2038 4.22988
2 13.2422 13.2324 4.62593
1 13.2271 11.3409 5.05505
1 13.3071 13.2669 6.67936
2 13.2514 11.3367 7.03621
1 11.3266 11.3552 7.44249
1 13.1592 11.2666 9.00538
2 11.3153 11.0506 9.36039
1 11.3415 11.4768 11.2346
2 11.3702 13.2233 12.04
1 13.2236 13.2634 12.3576
1 11.3073 13.1594 13.9075
2 13.2409 13.229 14.3083
1 13.1771 11.3152 14.7256
1 13.3683 13.2741 16.2477
2 13.1761 11.3016 16.7292
1 11.4518 11.9733 17.2916
1 13.3034 11.3161 18.745
2 11.359 11.3379 19.0735
1 11.2534 13.3572 19.5621
1 11.3451 11.3467 21.0733
2 11.3235 13.2437 21.5225
1 13.2316 13.2454 21.9327
1 11.3249 13.2572 23.5171
2 13.2345 13.2486 23.9219
1 13.2392 11.3411 24.339
1 13.2333 13.2457 25.9127
2 13.2497 11.3351 26.3252
1 11.3386 11.3291 26.7326
1 13.2529 11.3262 28.3186
2 11.3121 15.1677 -0.18935
1 11.3176 17.0757 0.226102
1 11.3296 15.1344 1.75743
2 11.3275 17.0454 2.33886
1 13.2379 17.0659 2.59185
1 11.3403 17.8076 4.18903
2 13.2559 17.069 4.58567
1 13.2373 15.0781 5.12427
1 13.3149 17.0148 6.62135
2 12.988 15.1543 6.9691
1 11.2223 15.1324 7.48803
1 13.3202 15.2363 8.83361
2 11.3642 15.3927 9.35766
1 11.3131 17.1331 9.90772
1 11.3243 14.9699 11.23
2 11.31 17.0411 11.8581
1 13.2296 17.0278 12.2077
1 11.439 17.0438 13.8065
2 13.3804 17.0732 14.2427
1 13.0788 15.1268 14.7377
1 13.2847 17.0558 16.2872
2 13.2149 15.1503 16.6952
1 11.1743 15.2418 17.2944
1 13.3288 15.071 18.6245
2 11.5702 15.2842 19.2047
1 11.998 17.1129 19.5873
1 11.3335 15.1569 21.1616
2 11.3088 17.0782 21.4237
1 13.2813 17.0737 21.9297
1 11.4168 17.0703 23.4482
2 13.2697 17.0595 23.8958
1 13.2518 15.1579 24.3404
1 13.1594 17.0995 25.9052
2 13.1967 15.1658 26.3254
1 11.3186 15.1434 26.7464
1 13.2233 15.1531 28.3333
2 11.3333 18.965 -0.00273602
1 11.3373 20.8687 0.198919
1 11.3289 18.9899 1.84405
2 11.3127 20.8915 2.22342
1 13.2368 20.8614 2.58604
1 11.3355 20.9248 4.16444
2 13.2037 20.8942 4.63137
1 13.2333 19.0429 5.14589
1 13.2642 20.8931 6.68146
2 13.2574 18.9519 7.06689
1 11.3686 18.8405 7.49885
1 13.2532 18.9785 9.0537
2 11.32 18.9989 9.45759
1 11.3767 20.8867 9.87666
1 11.1837 18.9466 11.4464
2 11.4423 20.8837 11.8904
1 13.2413 21.6381 12.3246
1 11.3048 20.883 13.8814
2 13.241 20.8881 14.179
1 13.1331 18.9928 14.7715
1 13.2583 20.9011 16.2893
2 13.2511 18.9938 16.6934
1 11.3258 18.9285 17.1016
1 13.2739 19.0707 18.6376
2 11.3142 18.8524 19.1009
1 11.3604 20.8658 19.5026
1 11.2165 19.0139 21.1109
2 11.5879 20.8709 21.4083
1 13.3378 20.9466 21.9603
1 11.1378 20.8725 23.2712
2 13.2105 20.9098 23.9139
1 13.2414 18.9761 24.301
1 13.1067 20.741 25.8852
2 13.4851 18.9279 26.2319
1 13.073 18.9627 28.1152
2 11.3303 22.7918 -0.179091
1 11.404 24.7122 0.22279
1 11.2154 22.7641 1.76076
2 11.4322 24.7129 2.24899
1 13.2202 25.4519 2.6518
1 11.3231 24.6862 4.25363
2 13.2621 24.7069 4.53852
1 13.2269 22.7723 5.09858
1 13.3792 24.6769 6.60991
2 13.2602 22.8007 7.05843
1 11.3674 22.8835 7.4948
1 13.2523 22.7909 9.0541
2 11.3259 22.8101 9.45732
1 11.3617 24.7161 9.9171
1 11.2195 22.8223 11.4236
2 11.3307 24.7197 11.8718
1 13.2624 24.7469 12.2694
1 11.3366 24.715 13.8651
2 13.2606 24.6643 14.2656
1 13.23 22.812 14.7439
1 13.3259 24.7299 16.2998
2 13.257 22.8077 16.6908
1 11.3506 22.8073 17.1074
1 13.2815 22.8473 18.6926
2 11.3458 22.8136 19.0861
1 11.3685 24.7406 19.5253
1 11.2543 22.7243 21.0393
2 11.3138 24.7078 21.5677
1 13.262 24.6809 21.8199
1 11.371 25.4764 23.4366
2 13.1225 24.7025 23.7084
1 13.3142 22.9037 24.5451
2 13.2337 22.5056 26.4112
1 11.343 22.7742 26.7364
1 13.2389 22.7942 28.309
2 15.1795 -0.141503 0.00852
1 15.1799 1.72655 0.213023
1 15.2909 -0.0946238 1.86631
2 15.2085 1.89462 2.21036
1 17.1145 1.68036 2.68556
1 15.1809 1.83824 4.23211
2 17.0808 1.78549 4.64216
1 17.0979 -0.103975 5.06992
1 16.9897 1.84066 6.65891
2 17.0456 -0.0980695 7.0398
1 15.1465 -0.113197 7.48738
1 17.0025 -0.0342992 9.05036
2 15.15 -0.344782 9.38948
1 15.1701 0.0509247 11.2758
2 15.1772 1.78149 12.0842
1 17.0793 1.85804 12.3082
1 15.1563 1.81985 13.9592
2 17.0696 1.83209 14.2993
1 17.0851 -0.117814 14.6342
1 17.0382 1.68093 16.2512
2 17.3232 -0.122297 16.5835
1 16.7736 -0.0966503 18.4059
2 15.1625 0.124154 19.2385
1 15.1223 1.89787 19.567
1 15.1394 -0.246969 21.032
2 15.1252 1.78716 21.5166
1 17.0544 1.78308 21.7799
1 15.2438 1.77167 23.4545
2 17.0667 1.80423 23.6926
1 17.0188 0.0926253 24.5713
2 17.3718 -0.356589 26.3187
1 16.9004 -0.107369 28.08
2 15.1789 3.68316 -0.240949
1 15.2018 5.67834 0.235217
1 16.0238 3.72459 1.82397
2 15.0614 5.48449 2.21433
1 17.1259 5.7447 2.70556
1 15.1765 5.55552 4.21171
2 17.069 5.61136 4.64083
1 17.0794 3.69973 5.05933
1 16.953 5.56021 6.6744
2 17.3077 3.70183 6.96085
1 16.8713 3.65606 8.87068
2 15.1702 3.96474 9.55667
1 15.0651 5.73781 9.86974
1 15.1438 3.50541 11.3129
2 15.0629 5.60403 11.9493
1 16.9553 5.53482 12.1725
1 15.1728 6.30863 13.7641
2 16.8927 5.56192 14.0588
1 17.1886 3.87777 14.9287
2 17.1085 3.43444 16.7775
1 15.1936 3.65196 17.0972
1 16.9889 3.73298 18.644
2 15.1384 3.75493 19.1195
1 15.1907 5.63454 19.5425
1 15.1457 3.70234 21.1319
2 15.1614 5.59155 21.5431
1 17.0688 5.54962 21.9217
1 15.1745 5.56888 23.5423
2 17.0823 5.57394 23.901
1 17.0523 3.55879 24.4811
1 17.1766 5.70243 25.8397
2 16.9677 3.9277 26.3884
1 15.1354 4.32884 26.788
1 17.1174 3.72069 28.2863
2 14.9316 7.52559 -0.130158
1 15.2059 9.40245 0.192753
1 15.2964 7.55809 1.73298
2 15.1675 9.42224 2.20939
1 17.0406 9.47394 2.60455
1 15.1302 9.29812 4.16208
2 17.1444 9.53422 4.63348
1 16.924 7.46114 5.14609
1 17.0771 9.38672 6.65522
2 17.0221 7.48606 7.07291
1 14.9983 7.53119 7.66787
1 17.2071 7.43169 9.04217
2 15.4218 7.56077 9.5271
1 15.144 9.41115 9.85419
1 14.9959 7.54258 11.3814
2 15.2522 9.425 11.892
1 17.0707 10.1428 12.2778
1 15.1457 9.41588 13.8747
2 17.0352 9.46063 14.1593
1 17.2002 7.17526 15.0102
1 17.0288 9.46944 16.1574
2 17.0158 7.77735 16.6776
1 17.074 7.41276 18.4282
2 15.173 7.49965 19.3009
1 15.0811 9.36198 19.5585
1 15.196 7.50886 21.1859
2 15.1475 9.44466 21.5297
1 17.0602 9.46496 21.913
1 15.1615 9.44051 23.5245
2 17.0616 9.45766 23.89
1 17.0651 7.53423 24.2178
1 17.0628 9.44003 25.8774
2 17.0776 7.56299 26.1022
1 15.3379 7.53278 26.9138
2 15.1626 11.3262 -0.191787
1 15.1829 13.2478 0.199295
1 15.1466 11.3391 1.79562
2 15.1518 13.2577 2.208
1 17.0746 13.2218 2.63498
1 15.1223 13.3256 4.16399
2 17.0391 13.175 4.65717
1 17.6973 11.509 5.27907
1 16.9378 13.3283 6.74709
2 17.0242 11.3403 7.02451
1 15.1258 11.359 7.53314
1 17.0917 11.2176 9.0212
2 15.1167 11.4485 9.48339
1 15.8913 13.2468 9.93707
1 15.034 11.3246 11.435
2 15.1057 13.2364 11.789
1 16.9783 13.2349 12.3478
1 15.1339 13.2095 13.8971
2 17.0788 13.2313 14.259
1 17.0853 11.3758 14.6988
1 17.0694 13.2501 16.2205
2 17.0395 11.3492 16.7583
1 15.1166 11.3327 17.0877
1 17.0695 12.0835 18.6235
2 15.2706 11.3287 19.0778
1 15.0646 13.2701 19.5584
1 15.2035 11.3381 21.082
2 15.107 13.2471 21.5176
1 16.9743 13.2497 21.9557
1 15.14 13.252 23.5405
2 17.0938 13.2479 23.8989
1 17.0878 11.3684 24.3217
1 17.1469 13.2883 25.9031
2 17.0687 11.352 26.3141
1 15.1619 11.359 26.7251
1 17.0618 11.3353 28.3059
2 15.1647 15.1608 -0.216779
1 15.1448 17.0656 0.189341
1 15.1754 15.1389 1.72392
2 15.1199 17.0669 2.30268
1 16.9885 17.0638 2.60655
1 15.1631 17.842 4.16152
2 17.0341 17.0756 4.57103
1 17.0951 15.0798 5.10897
1 17.0026 17.032 6.57775
2 17.3071 15.1819 6.97265
1 16.9148 15.265 8.81924
2 15.1386 15.041 9.64529
1 15.1338 17.0179 9.85196
1 15.1536 15.1674 11.506
2 15.1672 17.0723 11.973
1 17.0944 17.0626 12.2497
1 15.1976 17.8353 13.8106
2 16.9498 17.0317 14.2467
1 17.1908 15.0844 14.6894
1 17.0317 16.983 16.2223
2 17.0794 15.1162 16.6789
1 15.178 15.1667 17.0713
1 17.0592 15.1625 18.6815
2 15.1808 15.1517 19.0902
1 15.1721 17.0649 19.4927
1 15.152 15.1685 21.0979
2 15.1662 17.0612 21.5072
1 17.066 17.0519 21.9273
1 15.1688 17.0585 23.5322
2 17.0798 17.0567 23.9086
1 17.0989 15.1384 24.3255
1 17.1287 17.009 25.9121
2 16.8291 15.1477 26.2383
1 15.064 15.1734 26.7502
1 17.2313 15.1666 28.1187
2 15.1296 18.9662 -0.205369
1 15.129 20.8768 0.191019
1 15.1513 19.0068 1.73908
2 15.1785 20.8744 2.22749
1 17.2398 20.8414 2.83216
1 15.0723 20.9311 4.18442
2 16.8363 20.8909 4.72121
1 17.1548 19.066 5.11606
1 17.0267 20.8996 6.65481
2 17.062 18.953 7.05014