1792
Atoms. Timestep: 659
2 -0.19355 -0.195171 -0.0219278
1 -0.195358 1.72522 0.377289
1 -0.206187 -0.195677 1.95537
2 -0.209765 1.72458 2.35521
1 1.69296 1.70013 2.75313
1 -0.204555 1.72284 4.33961
2 1.70844 1.71033 4.73498
1 1.68828 -0.205423 5.14716
1 1.73759 1.72733 6.712
2 1.72489 -0.194104 7.11235
1 -0.195754 -0.184653 7.51123
1 1.72573 -0.183372 9.07993
2 -0.193446 -0.186583 9.47794
1 -0.194328 1.73151 9.88843
1 -0.194554 -0.207486 11.4102
2 -0.194041 1.739 11.9538
1 1.74758 1.72684 12.2727
1 -0.197703 2.50771 13.817
2 1.5763 1.73792 14.2543
1 1.73232 -0.183635 14.759
1 1.67163 1.75372 16.2644
2 1.73392 -0.182555 16.6791
1 -0.175959 -0.217093 17.0422
1 1.72381 -0.204004 18.633
2 -0.316928 -0.198826 19.0135
1 -0.050229 1.75176 19.4634
1 -0.257284 -0.193802 21.0048
2 -0.192638 1.71984 21.4188
1 1.73439 1.70582 21.8247
1 -0.188659 1.73119 23.3936
2 1.73367 1.72792 23.8041
1 1.73468 -0.187748 24.2053
1 1.72333 1.71572 25.7966
2 1.72338 -0.197694 26.1821
1 -0.195164 -0.193577 26.5813
1 1.72267 -0.211774 28.1554
2 -0.199773 3.64716 -0.0192196
1 -0.196894 5.56874 0.379813
1 -0.204073 3.6458 1.95563
2 -0.188565 5.56751 2.3516
1 1.72193 5.56092 2.7576
1 -0.196981 5.57033 4.3293
2 1.70277 5.57931 4.74272
1 1.70455 3.64201 5.13258
1 1.72041 5.56516 6.71965
2 1.7309 3.64578 7.11999
1 -0.189578 3.64296 7.51557
1 1.71154 3.65193 9.11497
2 -0.200044 3.64952 9.48689
1 -0.188492 5.57525 9.89231
1 -0.192299 3.6687 11.4234
2 -0.188293 5.56148 11.8888
1 1.72884 5.55795 12.3005
1 -0.189146 5.57541 13.8781
2 1.74163 5.57314 14.2776
1 1.8568 3.68421 14.7168
1 1.70831 5.57819 16.2646
2 1.74418 3.6635 16.6717
1 -0.192691 3.67093 17.066
1 1.74677 3.66734 18.6408
2 -0.188048 3.65737 19.0377
1 -0.126635 5.57014 19.461
1 -0.332065 3.62021 20.9917
2 -0.0748502 5.56736 21.4546
1 1.73009 6.32453 21.8669
1 -0.20743 5.56721 23.4344
2 1.72793 5.56762 23.7136
1 1.72592 3.62301 24.2537
1 1.70612 5.56703 25.7786
2 1.71198 3.65046 26.1848
1 -0.206154 3.64468 26.5847
1 1.71125 3.65416 28.1453
2 -0.198099 7.48939 -0.0172362
1 -0.189285 9.40887 0.382608
1 -0.189186 7.49104 1.96024
2 -0.200765 9.41336 2.36237
1 1.70583 9.44555 2.77393
1 -0.205444 9.41418 4.34464
2 1.71581 9.4153 4.74615
1 1.68139 7.50371 5.15462
1 1.72386 9.41008 6.7249
2 1.72267 7.48835 7.12766
1 -0.190852 7.48894 7.52065
1 1.71916 7.48376 9.11005
2 -0.190206 7.48316 9.50302
1 -0.193488 9.3971 9.90001
1 -0.189532 7.47852 11.4844
2 -0.180787 9.39803 11.8775
1 1.73411 9.39473 12.2807
1 -0.18204 9.37845 13.8546
2 1.73266 9.38621 14.2639
1 1.73714 7.4814 14.6749
1 1.75074 9.38405 16.2526
2 1.72823 7.4808 16.6646
1 -0.191157 7.50116 17.0743
1 1.74638 7.46925 18.6399
2 -0.18529 7.48524 19.0454
1 -0.0310229 9.38609 19.4747
1 -0.333613 7.51413 20.9969
2 -0.191921 9.41183 21.4269
1 1.73428 9.42192 21.8309
1 -0.189796 9.40407 23.3998
2 1.73141 9.40828 23.8084
1 1.72303 7.51153 24.2535
1 1.72097 9.41945 25.7988
2 1.70842 7.48427 26.183
1 -0.20729 7.49145 26.5845
1 1.71059 7.4808 28.142
2 -0.192809 11.3292 -0.0210067
1 -0.190136 13.2493 0.378083
1 -0.201682 11.3309 1.95493
2 -0.18857 13.2481 2.35526
1 1.72383 13.2475 2.75234
1 -0.183605 13.2463 4.33619
2 1.73181 13.2476 4.73699
1 1.72915 11.3302 5.14573
1 1.73954 13.2483 6.71784
2 1.7205 11.3291 7.1234
1 -0.191438 11.3267 7.51786
1 1.71685 11.3247 9.10425
2 -0.198394 11.3153 9.49965
1 -0.204251 13.2311 9.88676
1 -0.154317 11.3132 11.4725
2 -0.190102 13.2313 11.889
1 1.71771 13.2553 12.2845
1 -0.180785 13.2198 13.895
2 1.75208 13.2091 14.2722
1 1.70089 11.2872 14.6689
1 1.8773 13.1848 16.2291
2 1.75369 11.2942 16.6511
1 -0.166731 11.2944 17.0201
1 1.72398 11.3468 18.6175
2 -0.290381 11.3378 19.0143
1 -0.0483797 13.2691 19.5424
1 -0.249847 11.3219 21.0263
2 -0.176477 13.2507 21.4551
1 1.73968 13.2399 21.859
1 -0.185033 13.2312 23.4168
2 1.73613 13.2438 23.8222
1 1.73335 11.3241 24.2108
1 1.72848 13.2495 25.7895
2 1.72291 11.3337 26.1864
1 -0.192697 11.3293 26.5812
1 1.72112 11.3468 28.1606
2 -0.183559 15.1679 -0.0194197
1 -0.181189 17.0864 0.381193
1 -0.190507 15.1672 1.95768
2 -0.190694 17.0856 2.35719
1 1.72592 17.0858 2.75189
1 -0.183936 17.0871 4.33444
2 1.73085 17.0853 4.73455
1 1.73963 15.1663 5.13586
1 1.73975 17.0884 6.71278
2 1.75274 15.1682 7.10849
1 -0.166408 15.1673 7.49046
1 1.73187 15.1626 9.08348
2 -0.183947 15.1677 9.47974
1 -0.191141 17.0892 9.89784
1 -0.192563 15.1357 11.4211
2 -0.187476 17.1127 11.96
1 1.7337 17.0873 12.2339
1 -0.169913 17.872 13.8625
2 1.6196 17.108 14.2261
1 1.78294 15.1149 14.7201
1 1.80145 17.1325 16.1832
2 1.62327 15.1672 16.6908
1 -0.1915 15.898 17.115
1 1.7457 15.2017 18.6863
2 -0.178963 15.1706 18.9625
1 -0.185464 17.1064 19.5049
1 -0.195542 15.1788 21.0649
2 -0.178427 17.0935 21.4427
1 1.74046 17.0844 21.8395
1 -0.178915 17.0851 23.4115
2 1.73685 17.0845 23.8127
1 1.73316 15.1651 24.2093
1 1.73114 17.0869 25.7856
2 1.73212 15.1685 26.185
1 -0.181068 15.1661 26.5852
1 1.73235 15.1711 28.1626
2 -0.175423 19.006 -0.0163741
1 -0.180089 20.9247 0.383594
1 -0.185347 19.0052 1.96186
2 -0.186147 20.9231 2.36067
1 1.73436 20.9221 2.75601
1 -0.183821 20.9268 4.33671
2 1.73373 20.9236 4.73338
1 1.7323 19.0051 5.13242
1 1.72068 20.9255 6.71035
2 1.72721 19.0082 7.107
1 -0.188838 18.9998 7.50913
1 1.72821 19.0011 9.08112
2 -0.186499 19.0075 9.48096
1 -0.188534 20.9399 9.88027
1 -0.148501 19.044 11.4174
2 -0.190713 20.9307 11.8794
1 1.73128 20.9468 12.3006
1 -0.208615 20.9274 13.86
2 1.725 20.9577 14.2777
1 1.84228 19.0913 14.7102
1 1.73071 20.9397 16.2902
2 1.76114 19.0204 16.6624
1 -0.189899 19.0288 17.0485
1 1.73211 18.9882 18.6367
2 -0.184944 18.9993 19.0385
1 -0.182881 20.9148 19.4472
1 -0.165469 19.0152 21.0375
2 -0.177973 20.9195 21.4285
1 1.73759 20.9326 21.8275
1 -0.180266 20.925 23.4056
2 1.73511 20.9252 23.8047
1 1.73405 19.0055 24.2038
1 1.72907 20.924 25.7811
2 1.73018 19.0058 26.1809
1 -0.183497 19.0073 26.5826
1 1.7355 19.0062 28.161
2 -0.18497 22.8407 -0.0180657
1 -0.189694 24.7566 0.38154
1 -0.190184 22.8406 1.96065
2 -0.194412 24.7576 2.35999
1 1.7244 24.7575 2.76072
1 -0.196404 24.7505 4.3372
2 1.71985 24.7546 4.7398
1 1.72913 22.8407 5.13494
1 1.72359 24.7545 6.72032
2 1.72519 22.8392 7.11146
1 -0.194269 22.8432 7.51089
1 1.7256 22.8411 9.08323
2 -0.192107 22.8449 9.48932
1 -0.193775 24.7511 9.87784
1 -0.199941 22.8449 11.474
2 -0.18802 24.7663 11.8773
1 1.71488 24.7677 12.2672
1 -0.183093 24.7646 13.8575
2 1.88095 24.7662 14.2528
1 1.60068 22.8286 14.728
1 1.8104 24.7528 16.2693
2 1.7199 22.8484 16.6819
1 -0.193448 22.8636 17.1004
1 1.74602 22.8103 18.6486
2 -0.178496 22.8283 19.0633
1 -0.0649222 24.721 19.4846
1 -0.1911 22.8294 21.042
2 -0.17748 24.7588 21.4306
1 1.73691 24.769 21.8379
1 -0.18472 24.7773 23.4008
2 1.73559 24.7634 23.8082
1 1.73164 22.8441 24.2034
1 1.72549 24.7574 25.7817
2 1.72814 22.8403 26.1822
1 -0.18744 22.84 26.5869
1 1.73287 22.8372 28.1613
2 3.64391 -0.213632 -0.039061
1 3.61463 1.69637 0.363558
1 3.63702 -0.208564 1.93292
2 3.61776 1.69706 2.34285
1 5.55065 1.75038 2.75897
1 3.60077 1.59769 4.29145
2 5.56264 1.83742 4.77151
1 5.56584 -0.173692 5.1608
1 5.56796 1.69519 6.78414
2 5.5734 -0.200824 7.13248
1 3.64578 -0.207215 7.51807
1 5.56863 -0.200037 9.10429
2 3.6449 -0.187562 9.48523
1 3.65074 1.74126 9.90226
1 3.65595 -0.175236 11.4194
2 3.65161 1.72045 11.8967
1 5.56602 1.71315 12.3096
1 3.64534 1.72951 13.8759
2 5.57633 1.7374 14.284
1 5.7078 -0.151268 14.7215
1 5.56473 1.74607 16.2691
2 5.58174 -0.18136 16.6701
1 3.65576 -0.155719 17.0751
1 5.57393 -0.19543 18.6478
2 3.64523 -0.196984 19.0419
1 3.6448 1.7181 19.4285
1 3.65108 -0.197955 21.0136
2 3.66191 1.71301 21.4152
1 5.58159 1.68983 21.8214
1 3.65406 1.73399 23.3941
2 5.57533 1.72268 23.7907
1 5.56812 -0.196182 24.1925
1 5.57095 1.72091 25.7605
2 5.5638 -0.194622 26.168
1 3.64474 -0.200512 26.5706
1 5.56375 -0.204136 28.1426
2 3.61984 3.62975 -0.0308973
1 3.68017 5.56755 0.374587
1 3.50686 3.60313 1.91278
2 3.75228 5.58642 2.37878
1 5.53427 6.34295 2.85346
1 3.57768 5.68156 4.34911
2 5.55543 5.42343 4.70658
1 6.32406 3.61158 5.26027
1 5.53349 5.5703 6.75406
2 5.56335 3.63946 7.07443
1 3.61906 3.64588 7.60135
1 5.56551 3.66225 9.12608
2 3.64145 3.65602 9.53271
1 3.63411 5.57034 9.92882
1 3.65977 3.64699 11.501
2 3.6507 5.57094 11.8992
1 5.57313 5.56521 12.29
1 3.6612 5.60002 13.8665
2 5.57452 5.56427 14.2651
1 5.56495 3.64917 14.6711
1 5.57324 5.56702 16.2407
2 5.57444 3.65817 16.6508
1 3.66066 3.66151 17.0741
1 5.58511 3.66003 18.6247
2 3.67492 3.64961 19.0422
1 3.61664 5.56698 19.4645
1 3.78034 3.60626 20.9877
2 3.53042 5.56622 21.4511
1 5.55774 5.56066 21.8367
1 3.66409 5.567 23.4298
2 5.56884 5.5656 23.8078
1 5.58245 3.64267 24.2027
1 5.54503 5.56526 25.7852
2 5.5615 3.63411 26.1773
1 3.63106 3.65546 26.5728
1 5.52255 3.49868 28.1235
2 3.62077 7.50822 -0.0443152
1 3.60912 9.44155 0.357273
1 3.51351 7.53335 1.89347
2 3.61404 9.42531 2.34473
1 5.5395 9.42457 2.72078
1 3.63953 9.39738 4.33089
2 5.55037 9.39646 4.74106
1 5.5634 7.52057 5.24097
1 5.54277 9.4205 6.76232
2 5.5517 7.47552 7.16701
1 3.63279 7.48772 7.549
1 5.54903 7.49027 9.14235
2 3.63101 7.48464 9.52237
1 3.62952 9.39978 9.90782
1 3.64548 7.48916 11.4971
2 3.65158 9.40847 11.8817
1 5.5698 9.4123 12.2901
1 3.64887 9.41401 13.8523
2 5.5621 9.41372 14.261
1 5.58772 7.47882 14.649
1 5.45043 9.36386 16.2057
2 5.56562 7.47578 16.6343
1 3.64709 7.44256 17.0589
1 5.58105 7.49096 18.6074
2 3.67209 7.48308 19.0333
1 3.6311 9.413 19.434
1 3.78642 7.52435 20.9844
2 3.66041 9.41628 21.4188
1 5.57793 9.44353 21.8335
1 3.64989 9.40087 23.3991
2 5.57025 9.41393 23.7964
1 5.57662 7.49007 24.1968
1 5.55398 9.41439 25.7601
2 5.55082 7.50052 26.167
1 3.6276 7.4791 26.5675
1 5.52874 7.62444 28.1156
2 3.64079 11.3483 -0.0321542
1 3.64761 13.2577 0.37086
1 3.63657 11.3407 1.94936
2 3.64193 13.2536 2.34766
1 5.56158 13.2471 2.75838
1 3.64098 13.256 4.31795
2 5.5498 13.2449 4.73401
1 5.56072 11.3112 5.13958
1 5.40736 13.2267 6.67761
2 5.53477 11.3393 7.1271
1 3.62516 11.3036 7.53423
1 5.54894 11.3268 9.1142
2 3.63298 11.316 9.49989
1 3.63602 13.2396 9.89993
1 3.65601 11.3197 11.464
2 3.65114 13.2312 11.8681
1 5.57652 13.3066 12.305
1 3.63077 13.0692 13.8033
2 5.54765 13.3453 14.3056
1 5.6373 11.3299 14.7044
1 5.40669 13.2411 16.2697
2 5.68933 11.3131 16.6954
1 3.66816 11.2655 17.0883
1 5.55395 11.3232 18.6823
2 3.63914 11.3326 19.0486
1 3.64615 13.2513 19.4618
1 3.63987 11.3288 21.0253
2 3.64969 13.2442 21.4385
1 5.56674 13.2428 21.8382
1 3.65466 13.2475 23.4204
2 5.57207 13.2517 23.8098
1 5.56461 11.3338 24.1966
1 5.56448 13.2512 25.7822
2 5.5549 11.3292 26.1706
1 3.64033 11.3368 26.5738
1 5.55739 11.3435 28.1461
2 3.6485 15.1737 -0.0267307
1 3.65019 17.0901 0.375001
1 3.63784 15.1672 1.94991
2 3.64184 17.082 2.35028
1 5.55485 17.0462 2.76506
1 3.64004 17.0807 4.3226
2 5.5539 17.0875 4.73214
1 5.62971 15.1695 5.15124
1 5.43494 17.1253 6.67778
2 5.68167 15.1744 7.14927
1 3.66329 15.176 7.53298
1 5.55038 15.16 9.13684
2 3.64343 15.1634 9.50321
1 3.64646 17.0891 9.88991
1 3.62752 15.1602 11.4779
2 3.64033 17.101 11.857
1 5.54572 17.0287 12.2866
1 3.58959 17.2131 13.7988
2 5.55096 16.9436 14.2898
1 6.2938 15.1149 14.7825
1 5.55819 17.1028 16.2696
2 5.52415 15.1661 16.579
1 3.6046 15.2108 17.1372
1 5.56421 15.1621 18.6407
2 3.65394 15.1761 19.0736
1 3.66614 17.0943 19.4757
1 3.66137 15.1658 21.0453
2 3.654 17.0896 21.4429
1 5.56989 17.0941 21.8338
1 3.65398 17.085 23.4168
2 5.57191 17.0867 23.8069
1 5.57345 15.1691 24.2032
1 5.568 17.0878 25.7806
2 5.56655 15.1699 26.1793
1 3.64808 15.1698 26.578
1 5.56303 15.1782 28.154
2 3.65163 19.0061 -0.0247452
1 3.65253 20.9206 0.381865
1 3.65534 19.0023 1.95831
2 3.65998 20.9207 2.3571
1 5.57933 20.9276 2.76696
1 3.65124 20.9253 4.33174
2 5.56486 20.9357 4.73682
1 5.56686 19.0173 5.1247
1 5.56238 20.9327 6.71453
2 5.55656 19.0185 7.10843
1 3.63809 19.0425 7.51268
1 5.56492 18.9998 9.08404
2 3.64526 19.0073 9.48204
1 3.64322 20.9193 9.87382
1 3.65218 19.0216 11.4532
2 3.64506 20.9329 11.8773
1 5.55822 20.9302 12.2755
1 3.6636 20.9595 13.869
2 5.58371 20.9282 14.2675
1 5.56341 18.9999 14.6742
1 5.58338 20.9086 16.2572
2 5.57799 19.0011 16.6675
1 3.67119 19.029 17.0963
1 5.56872 19.0041 18.6785
2 3.6517 19.0047 19.0644
1 3.65569 20.919 19.4571
1 3.64319 19.0105 21.0429
2 3.65229 20.9296 21.4306
1 5.56917 20.9275 21.8247
1 3.65178 20.927 23.4065
2 5.56994 20.9225 23.7991
1 5.56723 19.0053 24.1975
1 5.56411 20.9232 25.7734
2 5.56257 19.0067 26.1702
1 3.64503 19.0059 26.5739
1 5.56168 19.0129 28.1403
2 3.65259 22.8316 -0.0239186
1 3.65225 24.7432 0.371765
1 3.65377 22.8398 1.96148
2 3.64167 24.7568 2.35933
1 5.5537 24.798 2.7696
1 3.63933 24.767 4.34353
2 5.56078 24.7797 4.74058
1 5.55307 22.8556 5.13675
1 5.57572 24.7641 6.71688
2 5.56931 22.8479 7.11271
1 3.64741 22.8477 7.50914
1 5.56789 22.8485 9.08886
2 3.64567 22.8465 9.4756
1 3.64123 24.7619 9.88598
1 3.64528 22.8243 11.4111
2 3.65685 24.7528 11.9584
1 5.59943 24.7413 12.2448
1 3.69831 25.5011 13.787
2 5.46468 24.7573 14.2413
1 5.68735 22.8232 14.7283
1 5.50784 24.7684 16.2505
2 5.58516 22.8415 16.6689
1 3.65961 22.821 17.0622
1 5.57407 22.8379 18.6444
2 3.6587 22.8318 19.0427
1 3.65166 24.7535 19.4351
1 3.65236 22.8454 21.0237
2 3.65017 24.7594 21.4197
1 5.56919 24.7616 21.8186
1 3.65427 24.7583 23.4029
2 5.57184 24.7571 23.7956
1 5.5717 22.8406 24.1945
1 5.56742 24.7558 25.7732
2 5.56611 22.8388 26.1701
1 3.64591 22.8387 26.5759
1 5.56648 22.8261 28.1403
2 7.48307 -0.182285 -0.0514257
1 7.46382 1.7284 0.366893
1 7.47843 -0.198677 1.91954
2 7.4878 1.69809 2.34332
1 9.4237 1.70109 2.73713
1 7.51719 1.59089 4.28881
2 9.40832 1.6936 4.73391
1 9.40695 -0.219616 5.17112
1 9.40748 1.73027 6.71787
2 9.41039 -0.186552 7.14087
1 7.49525 -0.193363 7.53855
1 9.40926 -0.170459 9.11803
2 7.48695 -0.18388 9.51399
1 7.47298 1.7272 9.93083
1 7.49829 -0.192246 11.4934
2 7.48753 1.72409 11.9047
1 9.41092 1.7237 12.2969
1 7.50044 1.76207 13.873
2 9.41303 1.72736 14.2756
1 9.40098 -0.192272 14.6719
1 9.40724 1.72353 16.2544
2 9.40659 -0.192043 16.6554
1 7.4938 -0.194941 17.0789
1 9.41449 -0.190645 18.6393
2 7.49613 -0.191353 19.047
1 7.49132 1.72968 19.4368
1 7.50085 -0.1915 21.018
2 7.49337 1.72578 21.4132
1 9.41099 1.72871 21.8066
1 7.49428 1.72666 23.3907
2 9.41138 1.72481 23.7779
1 9.41421 -0.193991 24.1829
1 9.40486 1.72679 25.7443
2 9.40738 -0.182915 26.1631
1 7.48403 -0.189096 26.5596
1 9.39843 -0.137973 28.1351
2 7.48907 3.74661 -0.000247279
1 8.22069 5.52153 0.426316
1 7.58041 3.58684 1.9591
2 7.32585 5.57294 2.29461
1 9.44353 5.53716 2.80624
1 7.5223 5.66867 4.30998
2 9.41212 5.58295 4.74364
1 9.41806 3.63668 5.1352
1 9.4052 5.56058 6.70848
2 9.4091 3.64846 7.13701
1 7.51736 3.6497 7.61146
1 9.40877 3.63063 9.15422
2 7.48278 3.64814 9.54436
1 7.49768 5.56371 9.94798
1 7.48291 3.64158 11.5114
2 7.49307 5.56413 11.9101
1 9.40945 5.56079 12.3053
1 7.49036 5.55012 13.8774
2 9.40754 5.55455 14.2776
1 9.42318 3.64172 14.6773
1 9.4119 5.55624 16.2528
2 9.41372 3.6412 16.655
1 7.49634 3.64907 17.0508
1 9.40959 3.64848 18.6344
2 7.49468 3.65104 19.0353
1 7.48832 5.57125 19.44
1 7.48324 3.64572 21.0155
2 7.47506 5.56049 21.4189
1 9.40301 5.55954 21.8092
1 7.48583 5.56309 23.3954
2 9.4086 5.56292 23.7802
1 9.40569 3.64452 24.1795
1 9.43743 5.56157 25.7505
2 9.41504 3.63634 26.1552
1 7.48698 3.70896 26.5891
1 9.45461 3.50866 28.0965
2 7.49848 7.32975 -0.0379793
1 7.4806 9.43572 0.342852
1 7.59991 7.54173 1.89628
2 7.49938 9.4197 2.32872
1 9.39819 9.43894 2.84441
1 7.43045 9.39983 4.27823
2 9.40312 9.40929 4.82684
1 9.40307 7.48528 5.14317
1 10.1575 9.4132 6.66218
2 9.39836 7.61689 7.11007
1 7.45117 7.36341 7.59039
1 9.40238 7.54214 9.10515
2 7.4825 7.47237 9.53281
1 7.46504 9.40303 9.908
1 7.49515 7.48753 11.5036
2 7.48756 9.40316 11.8927
1 9.40842 9.40914 12.2849
1 7.49251 9.39372 13.8737
2 9.41565 9.39633 14.2688
1 9.39926 7.4679 14.6622
1 9.53668 9.35826 16.2214
2 9.42392 7.46689 16.6507
1 7.49677 7.47076 17.0372
1 9.40447 7.49173 18.6317
2 7.48937 7.48926 19.0339
1 7.48734 9.38299 19.5015
1 7.48106 7.47373 21.0355
2 7.49374 9.40777 21.4353
1 9.41382 9.40286 21.8252
1 7.49208 9.41165 23.4028
2 9.41116 9.41231 23.792
1 9.41034 7.48624 24.1762
1 9.37974 9.41263 25.7561
2 9.41142 7.48732 26.1302
1 7.46942 7.42115 26.5563
1 9.42002 7.48811 28.0413
2 7.47175 11.3541 -0.048103
1 7.4438 13.2636 0.379311
1 7.49517 11.3322 1.93032
2 7.47988 13.245 2.35751
1 9.40122 13.2653 2.75526
1 7.47682 13.2303 4.33595
2 9.41135 13.25 4.72899
1 9.3958 11.3394 5.10106
1 9.52018 13.1963 6.67474
2 9.41566 11.2064 7.08779
1 7.43595 11.4464 7.54999
1 9.39737 11.27 9.0784
2 7.47791 11.3332 9.50388
1 7.49366 13.2258 9.97115
1 7.48698 11.3111 11.4886
2 7.4995 13.2396 11.9042
1 9.42688 13.248 12.2953
1 7.53332 13.1322 13.8423
2 9.43677 13.2402 14.2691
1 9.38474 11.3123 14.7021
1 9.53638 13.2919 16.2096
2 9.29098 11.3226 16.6892
1 7.49752 12.0823 17.1142
1 9.41992 11.3246 18.6762
2 7.48853 11.3273 18.9623
1 7.48356 13.2663 19.5134
1 7.50115 11.3262 21.035
2 7.48761 13.2429 21.4459
1 9.40884 13.25 21.8292
1 7.4906 13.2453 23.4107
2 9.41309 13.2536 23.7947
1 9.41765 11.3328 24.1874
1 9.4157 13.2511 25.7581
2 9.40284 11.3387 26.1621
1 7.47036 11.3277 26.5529
1 9.36619 11.4719 28.1057
2 7.48097 15.1653 -0.0264272
1 7.48318 17.07 0.368627
1 7.48278 15.1642 1.96067
2 7.47231 17.0762 2.3579
1 9.40465 17.0676 2.74557
1 7.48808 17.1132 4.33603
2 9.41595 17.0902 4.73645
1 9.33877 15.1665 5.15825
1 9.5498 17.1052 6.70021
2 9.27978 15.1565 7.14873
1 7.48016 15.9377 7.57207
1 9.41857 15.1738 9.12203
2 7.48734 15.1651 9.41772
1 7.48191 17.1084 9.95684
1 7.52189 15.1674 11.4854
2 7.48482 17.0905 11.8797
1 9.4228 17.1654 12.2891
1 7.47969 17.0864 13.7906
2 9.41251 17.2412 14.2932
1 9.40721 15.1899 14.6615
1 9.40992 17.0772 16.274
2 9.41755 15.1799 16.6575
1 7.51197 15.1734 17.1244
1 9.41541 15.1569 18.6607
2 7.48331 15.1644 19.0641
1 7.49049 17.0822 19.4702
1 7.4807 15.1762 21.052
2 7.48714 17.0922 21.4403
1 9.40525 17.0905 21.8269
1 7.48935 17.0914 23.4123
2 9.40729 17.0879 23.8023
1 9.40572 15.1712 24.1942
1 9.40572 17.0825 25.7777
2 9.40264 15.1635 26.1745
1 7.4854 15.1629 26.5755
1 9.40028 15.1475 28.1533
2 7.46979 18.9967 -0.0298222
1 7.55069 20.9191 0.388277
1 7.35583 18.968 1.91905
2 7.61025 20.929 2.38463
1 9.41263 21.6959 2.82446
1 7.46644 20.9424 4.36823
2 9.40145 20.9313 4.66541
1 9.39571 18.9969 5.19581
1 9.40863 20.926 6.73782
2 9.4218 19.0118 7.13751
1 7.48707 19.0136 7.51669
1 9.40665 19.0019 9.10789
2 7.48069 19.0048 9.49697
1 7.48677 20.9251 9.89153
1 7.45645 19.0249 11.482
2 7.49449 20.9382 11.8707
1 9.42383 20.8642 12.292
1 7.47242 21.0282 13.81
2 9.42599 20.8207 14.3006
1 10.1963 19.0222 14.7217
1 9.42146 20.9563 16.2993
2 9.41939 19.016 16.5873
1 7.47266 19.0083 17.1349
1 9.41133 19.0016 18.6612
2 7.496 19.0032 19.0706
1 7.49432 20.9277 19.4575
1 7.49211 19.0094 21.0377
2 7.48625 20.9291 21.4301
1 9.40298 20.9287 21.8211
1 7.48795 20.9218 23.404
2 9.40619 20.9218 23.8008
1 9.40994 19.0044 24.2023
1 9.39636 20.9195 25.7782
2 9.40114 18.9994 26.181
1 7.48165 19.008 26.5742
1 9.39238 18.9508 28.1546
2 7.4844 22.838 -0.0349367
1 7.50064 24.7674 0.345473
1 7.36083 22.8815 1.91076
2 7.47236 24.7709 2.3478
1 9.39991 24.7757 2.76827
1 7.48101 24.7552 4.33538
2 9.40267 24.7504 4.75275
1 9.40429 22.8653 5.21156
1 9.40858 24.7662 6.75862
2 9.40893 22.8389 7.14504
1 7.48643 22.8438 7.52753
1 9.41106 22.8387 9.10757
2 7.48734 22.8478 9.49483
1 7.5016 24.7674 9.89775
1 7.51288 22.8419 11.4596
2 7.50065 24.7552 11.8802
1 9.40833 24.7545 12.3011
1 7.47806 24.7573 13.8567
2 9.39553 24.7517 14.2753
1 9.40238 22.8339 14.6901
1 9.40326 24.7634 16.2494
2 9.41032 22.8558 16.668
1 7.49402 22.8627 17.084
1 9.41397 22.8524 18.6511
2 7.49425 22.8434 19.0532
1 7.48988 24.7606 19.4454
1 7.48643 22.8461 21.0283
2 7.48784 24.7627 21.4212
1 9.40605 24.7601 21.8134
1 7.48923 24.7604 23.3961
2 9.40841 24.7573 23.7916
1 9.40076 22.8409 24.195
1 9.39871 24.7672 25.769
2 9.40133 22.8444 26.1731
1 7.48719 22.8362 26.5758
1 9.41312 22.8513 28.143
2 11.3195 -0.179618 -0.0344719
1 11.377 1.72487 0.378246
1 11.3569 -0.183126 1.9469
2 11.3477 1.72461 2.35174
1 13.2592 1.80351 2.78371
1 11.3005 1.59311 4.30257
2 13.2521 1.83524 4.77798
1 13.2453 -0.177876 5.16395
1 13.247 1.7066 6.7668
2 13.2466 -0.194913 7.13663
1 11.326 -0.192384 7.54203
1 13.2499 -0.19375 9.11495
2 11.3298 -0.185479 9.51719
1 11.3396 1.72606 9.92988
1 11.3178 -0.192923 11.496
2 11.3299 1.72001 11.9042
1 13.2487 1.72135 12.2999
1 11.3295 1.7186 13.8783
2 13.2483 1.72776 14.2769
1 13.2493 -0.186218 14.6804
1 13.2462 1.72951 16.257
2 13.2467 -0.183656 16.659
1 11.3263 -0.18763 17.0558
1 13.2469 -0.185274 18.6352
2 11.3306 -0.18714 19.0347
1 11.3298 1.73093 19.4331
1 11.3283 -0.186707 21.0129
2 11.3302 1.73038 21.4102
1 13.2483 1.73257 21.8091
1 11.3289 1.73289 23.3867
2 13.2467 1.7347 23.788
1 13.2434 -0.174121 24.1765
1 13.2545 1.7285 25.7718
2 13.2506 -0.191767 26.1707
1 11.3307 -0.190971 26.5738
1 13.2528 -0.192278 28.1572
2 11.3425 3.64124 -0.0372972
1 11.3333 5.56793 0.361812
1 11.3197 3.65133 1.9435
2 11.3335 5.57963 2.33955
1 13.2536 5.49993 2.75523
1 11.3276 5.69143 4.31056
2 13.2632 5.42686 4.76124
1 14.0094 3.61966 5.19426
1 13.3003 5.56442 6.73506
2 13.2538 3.63949 7.04912
1 11.3055 3.65234 7.59899
1 13.2474 3.6564 9.1278
2 11.3318 3.64244 9.54072
1 11.2826 5.54912 9.95368
1 11.3387 3.6378 11.518
2 11.3246 5.56453 11.9134
1 13.2427 5.56172 12.3068
1 11.3272 5.56475 13.8838
2 13.2459 5.56012 14.2822
1 13.2437 3.64276 14.6762
1 13.2575 5.55457 16.26
2 13.2469 3.64224 16.6574
1 11.3295 3.64272 17.0578
1 13.246 3.64986 18.6368
2 11.3278 3.64911 19.0354
1 11.325 5.56571 19.4396
1 11.3273 3.64704 21.0133
2 11.3253 5.56408 21.4125
1 13.2473 5.56278 21.8089
1 11.3281 5.56409 23.3841
2 13.2469 5.56428 23.7808
1 13.2516 3.64515 24.1858
1 13.2588 5.56299 25.7482
2 13.2623 3.65104 26.1677
1 11.35 3.65592 26.5551
1 13.259 3.65365 28.1511
2 11.3355 7.64943 -0.0283135
1 12.1003 9.42224 0.412871
1 11.3393 7.47621 1.94221
2 11.3514 9.41646 2.27995
1 13.3037 9.40077 2.81725
1 11.3727 9.40248 4.27932
2 13.2706 9.39915 4.76778
1 13.267 7.48199 5.1783
1 13.2459 9.40375 6.74683
2 13.2564 7.45916 7.14273
1 11.3433 7.36178 7.56251
1 13.2202 7.35124 9.10033
2 11.3158 7.45391 9.51776
1 11.334 9.40225 9.89102
1 11.3284 7.48904 11.4913
2 11.33 9.40791 11.8767
1 13.2234 9.41399 12.3515
1 11.3151 9.40439 13.8638
2 13.2304 9.39703 14.2937
1 13.2325 7.473 14.6897
1 13.1989 9.38532 16.2617
2 13.2443 7.46916 16.6666
1 11.3357 7.43339 17.0725
1 13.2486 7.48872 18.647
2 11.3257 7.48233 19.0424
1 11.3303 9.39953 19.4476
1 11.3247 7.48247 21.0197
2 11.3304 9.40128 21.4242
1 13.2477 9.40269 21.8224
1 11.3315 9.40603 23.4033
2 13.2497 9.40732 23.7997
1 13.2486 7.48619 24.1831
1 13.2768 9.40876 25.7739
2 13.2656 7.47508 26.1522
1 11.3518 7.55619 26.5458
1 13.2856 7.36401 28.0998
2 11.3352 11.2278 0.000130795
1 11.324 13.2298 0.380127
1 11.3525 11.3587 1.99196
2 11.3298 13.2539 2.35473
1 13.2535 13.2569 2.75571
1 11.3314 13.2699 4.325
2 13.2448 13.2556 4.73489
1 13.2592 11.3279 5.15933
1 13.2911 13.2605 6.70304
2 13.2692 11.3507 7.13673
1 11.3706 11.4275 7.55932
1 13.2314 11.4574 9.09856
2 11.3178 11.3457 9.50474
1 11.2869 13.2543 9.91924
1 11.3227 11.3235 11.475
2 11.3291 13.2502 11.8835
1 13.2364 13.2524 12.275
1 11.3451 13.2386 13.8614
2 13.2536 13.2382 14.2876
1 13.2438 11.3228 14.7049
1 13.2275 13.2436 16.2847
2 13.2174 11.3069 16.6778
1 11.3057 11.322 17.0846
1 13.2222 11.3283 18.6635
2 11.316 11.3253 19.0574
1 11.3211 13.2474 19.4544
1 11.328 11.3222 21.0324
2 11.3245 13.2441 21.4238
1 13.2437 13.2461 21.8132
1 11.3301 13.2492 23.3969
2 13.2459 13.246 23.7863
1 13.2408 11.3262 24.1921
1 13.2357 13.2502 25.7551
2 13.2496 11.3382 26.1635
1 11.326 11.2618 26.5839
1 13.2857 11.4655 28.1054
2 11.3192 15.1432 -0.0362776
1 11.3165 17.0621 0.3571
1 11.3294 15.1554 1.93962
2 11.3433 17.0598 2.34349
1 13.2633 17.0344 2.76724
1 11.3229 17.0851 4.31324
2 13.2333 17.0868 4.74465
1 13.2226 15.1763 5.1453
1 13.2266 17.0903 6.72825
2 13.2317 15.1695 7.11891
1 11.315 15.1463 7.5293
1 13.2372 15.1547 9.09555
2 11.3194 15.1671 9.49708
1 11.3368 17.0933 9.90173
1 11.3223 15.1678 11.4694
2 11.333 17.0752 11.8766
1 13.2489 17.0535 12.2781
1 11.3606 16.9601 13.829
2 13.2496 17.0746 14.2647
1 13.2822 15.1524 14.7002
1 13.2129 17.1065 16.2364
2 13.2375 15.1864 16.6732
1 11.3348 15.2012 17.0809
1 13.2333 15.1611 18.6697
2 11.3232 15.1668 19.0578
1 11.3264 17.0845 19.4609
1 11.3198 15.1648 21.034
2 11.3217 17.0854 21.4298
1 13.2397 17.0799 21.8163
1 11.3228 17.0818 23.4017
2 13.2398 17.078 23.7917
1 13.2433 15.1654 24.1883
1 13.2274 17.0866 25.7687
2 13.2335 15.1661 26.1684
1 11.3198 15.1585 26.5732
1 13.2394 15.1546 28.1509
2 11.3221 18.9908 -0.0266192
1 11.1489 20.8856 0.432395
1 11.4584 18.9488 1.92522
2 11.192 20.9206 2.3929
1 13.2362 20.9042 2.77755
1 11.3411 20.9282 4.37357
2 13.2454 20.9254 4.74371
1 13.2405 19.0022 5.14648
1 13.2595 20.9324 6.71703
2 13.2452 19.0139 7.11881
1 11.3374 19.0451 7.54142
1 13.2491 19.0195 9.09175
2 11.3344 19.0136 9.51407
1 11.3305 20.9293 9.91217
1 11.3634 19.0089 11.4919
2 11.3506 20.9405 11.8805
1 13.2802 20.9211 12.287
1 11.3726 21.075 13.8234
2 13.2567 20.9483 14.2706
1 13.2465 19.014 14.6606
1 13.2316 20.9297 16.2514
2 13.2374 19.0146 16.6559
1 11.3456 19.0143 17.1281
1 13.2557 18.9994 18.6588
2 11.3288 19.0042 19.0637
1 11.327 20.9271 19.4493
1 11.3215 19.0075 21.0307
2 11.3186 20.9295 21.4187
1 13.2382 20.9333 21.8055
1 11.3212 20.9252 23.3892
2 13.2427 20.9252 23.7708
1 13.2403 18.9913 24.1704
1 13.2443 20.9022 25.7025
2 13.2372 19.0063 26.1616
1 11.3207 19.0179 26.5811
1 13.2438 18.9981 28.1449
2 11.4542 22.8423 -0.0595388
1 11.1848 24.8027 0.399279
1 11.5037 22.8779 1.90434
2 11.3281 24.7708 2.35814
1 13.2612 24.8167 2.77033
1 11.3261 24.7472 4.33389
2 13.2491 24.778 4.73964
1 13.2549 22.8526 5.13705
1 13.2435 24.7647 6.71816
2 13.2475 22.8479 7.11334
1 11.3306 22.8446 7.52864
1 13.2449 22.8411 9.08791
2 11.3316 22.8482 9.50288
1 11.3267 24.7669 9.90826
1 11.3324 22.853 11.4736
2 11.3205 24.7629 11.8963
1 13.2311 24.798 12.3042
1 11.3219 24.7572 13.8828
2 13.2489 24.7738 14.2774
1 13.2776 22.8675 14.6888
1 13.2497 24.772 16.2617
2 13.2484 22.8511 16.661
1 11.3321 22.8634 17.0649
1 13.2456 22.8421 18.6419
2 11.3304 22.8448 19.0419
1 11.3309 24.7648 19.4357
1 11.3222 22.848 21.0184
2 11.3236 24.7654 21.4095
1 13.2445 24.7628 21.8039
1 11.3244 24.7615 23.3824
2 13.2439 24.765 23.7724
1 13.2459 22.8458 24.1776
1 13.2487 24.7827 25.7083
2 13.2456 22.8428 26.2468
1 11.305 22.8437 26.5403
1 13.2519 23.5932 28.0957
2 15.1822 -0.183616 -0.025954
1 15.1644 1.73181 0.378405
1 15.1654 -0.177687 1.95186
2 15.1757 1.7261 2.3585
1 17.1062 1.73812 2.7469
1 15.214 1.58064 4.30562
2 17.1044 1.70594 4.73603
1 17.1319 -0.207523 5.15551
1 17.081 1.7255 6.71604
2 17.0892 -0.190575 7.12828
1 15.1702 -0.196028 7.52967
1 17.087 -0.166583 9.10403
2 15.1701 -0.176141 9.5064
1 15.1657 1.7353 9.92174
1 15.1637 -0.1835 11.4866
2 15.1661 1.72958 11.8984
1 17.0841 1.7244 12.2977
1 15.1672 1.72852 13.8762
2 17.0864 1.72816 14.2747
1 17.0885 -0.190402 14.6744
1 17.0821 1.72857 16.2523
2 17.0853 -0.181242 16.6591
1 15.1662 -0.180662 17.0592
1 17.0857 -0.181767 18.6388
2 15.1658 -0.185077 19.0351
1 15.1637 1.73161 19.4356
1 15.1671 -0.185786 21.0121
2 15.1672 1.73103 21.4134
1 17.0856 1.73005 21.8165
1 15.1653 1.73425 23.3907
2 17.0795 1.73316 23.7957
1 17.0788 -0.1841 24.1975
1 17.0844 1.73246 25.773
2 17.0903 -0.182115 26.176
1 15.169 -0.195167 26.5806
1 17.0999 -0.15209 28.1486
2 15.179 3.64271 -0.0251722
1 15.2058 5.55432 0.370393
1 15.1967 3.64811 1.95815
2 15.1788 5.57781 2.33795
1 17.1095 5.5721 2.74784
1 15.1938 5.66155 4.27959
2 17.0862 5.56291 4.73167
1 17.0959 3.63422 5.1267
1 17.0768 5.53852 6.71088
2 17.0839 3.63499 7.12922
1 15.1916 3.63581 7.59815
1 17.1011 3.64707 9.13243
2 15.1677 3.65835 9.53275
1 15.164 5.57258 9.94508
1 15.163 3.64777 11.503
2 15.165 5.56325 11.9116
1 17.0868 5.55371 12.3063
1 15.1648 5.55803 13.8864
2 17.0837 5.56442 14.2846
1 17.085 3.64569 14.6775
1 17.0786 5.558 16.2651
2 17.0796 3.64207 16.6563
1 15.1634 3.64069 17.0575
1 17.0793 3.64464 18.6352
2 15.1628 3.6493 19.0358
1 15.1648 5.56769 19.4374
1 15.1678 3.64799 21.0138
2 15.1678 5.56335 21.4151
1 17.0862 5.56245 21.8184
1 15.1663 5.56459 23.3907
2 17.0846 5.5653 23.7944
1 17.0827 3.64969 24.1957
1 17.0932 5.56565 25.7725
2 17.0912 3.64853 26.175
1 15.1749 3.64923 26.5759
1 17.0954 3.63219 28.1529
2 15.1801 7.47603 -0.0514532
1 15.181 9.41111 0.344579
1 15.155 7.48814 1.91694
2 15.1773 9.40184 2.34518
1 17.0707 9.39852 2.72448
1 15.2047 9.39962 4.35097
2 17.2232 9.40756 4.71601
1 16.9973 7.45706 5.19165
1 17.1655 9.4035 6.71522
2 17.0811 7.46556 7.13091
1 15.1707 7.5601 7.56905
1 17.1162 7.31205 9.07143
2 15.1681 7.59691 9.55542
1 15.9228 9.39306 9.96618
1 15.1704 7.46589 11.5342
2 15.1647 9.40156 11.8182
1 17.0992 9.40354 12.375
1 15.1426 9.36072 13.8872
2 17.0669 9.39098 14.3087
1 17.0817 7.47716 14.7004
1 17.0889 9.39202 16.2756
2 17.0815 7.47772 16.6731
1 15.1611 7.48359 17.0636
1 17.0798 7.48541 18.6449
2 15.1646 7.48796 19.0451
1 15.171 9.39911 19.464
1 15.1666 7.47984 21.0261
2 15.1668 9.40011 21.4307
1 17.0855 9.4014 21.823
1 15.1666 9.40376 23.4013
2 17.0831 9.40199 23.7973
1 17.0864 7.48276 24.1897
1 17.102 9.4062 25.7696
2 17.0996 7.48672 26.1617
1 15.1869 7.49295 26.5489
1 17.0932 7.48261 28.1357
2 15.177 11.3399 -0.0399881
1 15.1702 13.2477 0.387318
1 15.1621 11.3222 1.94241
2 15.1702 13.2452 2.3533
1 17.0851 13.2259 2.76735
1 15.1539 13.2877 4.32469
2 17.0709 13.2627 4.73941
1 16.9493 11.3643 5.17396
1 17.0649 13.268 6.71587
2 17.0768 11.3399 7.11306
1 15.1745 11.2546 7.56735
1 17.1549 11.4362 9.04953
2 15.1869 11.1926 9.5458
1 15.1805 13.2318 9.9061
1 15.1686 11.3368 11.5129
2 15.1634 13.247 11.875
1 17.0593 13.2497 12.2832
1 15.135 13.2437 13.8157
2 17.2132 13.2432 14.3376
1 16.9532 11.2744 14.7149
1 17.8231 13.2464 16.2007
2 17.0643 11.45 16.6556
1 15.1128 11.1878 17.1189
1 17.0807 11.3846 18.6364
2 15.1541 11.3104 19.0581
1 15.1444 13.2427 19.4401
1 15.1658 11.3226 21.0262
2 15.1624 13.2428 21.4133
1 17.0851 13.2469 21.8066