1659
Atoms. Timestep: 1193
2 26.7079 26.7225 -0.0010282
1 -0.227606 1.69197 0.388994
1 26.7198 -0.225622 1.98523
2 26.7269 1.70247 2.37329
1 1.6961 1.70399 2.77713
1 26.7232 1.69864 4.35049
2 1.69993 1.67378 4.73234
1 1.68004 -0.202857 5.17452
1 1.58737 1.74338 6.73772
2 1.70888 -0.130744 7.14446
1 26.5239 -0.198722 7.75641
1 1.79269 -0.214899 9.06322
2 0.0301381 -0.198157 9.5979
1 26.634 1.71944 9.69869
1 26.7154 26.6534 11.4525
1 1.80333 1.78244 12.1984
1 -0.231841 1.74838 14.1565
2 1.69817 1.71336 14.0559
1 1.71003 -0.143101 14.463
1 26.6298 -0.19189 16.8187
1 1.82459 -0.188793 18.847
1 -0.205468 1.84371 19.3668
1 -0.142735 -0.210217 21.3595
2 -0.175933 1.68909 21.2301
1 1.73498 1.77575 21.7446
1 1.90342 26.4223 24.0877
1 1.65353 1.64246 25.8614
1 26.6316 26.6484 26.6146
1 1.6528 26.7015 28.4205
2 26.6222 3.5783 0.0127329
1 26.6955 5.45665 0.416035
1 26.6541 3.64658 2.00512
2 0.0237168 5.57075 2.26792
1 1.77836 5.55692 2.78306
1 26.4943 5.56526 4.09041
2 1.6828 5.44843 4.70904
1 1.68249 3.58675 5.13283
1 1.60934 5.44306 6.72079
2 1.99919 3.59561 7.03499
1 1.46411 3.59722 8.86811
2 26.651 3.57729 9.5261
1 26.7257 5.33946 10.1338
2 -0.210337 5.80098 11.9719
1 1.65051 5.42788 12.3172
1 26.7298 5.51354 13.8535
2 1.70227 5.50026 14.2835
1 1.65563 3.45446 14.8436
1 1.66128 5.63492 16.2101
2 1.60463 3.8736 16.7142
1 -0.239503 3.62538 17.0741
1 1.78912 3.72339 18.6622
2 -0.213987 3.71698 19.0302
1 26.7211 5.56592 19.4266
1 -0.215382 3.61404 21.0121
2 -0.23026 5.52219 21.3788
1 1.82428 5.46563 21.708
1 -0.214934 5.56068 23.3183
2 1.67095 5.60658 23.5791
1 1.6137 3.99134 24.4881
2 1.60143 3.40645 26.2747
1 -0.24786 3.64801 26.5814
1 1.52554 3.62775 28.1555
2 26.7119 7.21931 28.4874
1 26.6772 7.59437 1.8009
2 26.7113 9.3956 2.57678
1 1.64775 9.35811 2.47073
1 26.5391 9.45662 4.43077
1 1.64672 7.28742 5.1931
1 1.67786 9.37452 7.06578
2 1.67368 7.42339 7.13767
1 -0.218341 7.39696 7.53983
1 1.70803 7.43502 9.14594
2 -0.15237 7.46452 9.53535
1 -0.214565 9.43224 9.86239
1 -0.197837 7.57081 11.4707
2 -0.218486 9.44798 11.8804
1 1.74172 9.4695 12.2884
1 26.7271 9.35759 13.8656
2 1.6825 9.41056 14.2772
1 1.70585 7.47821 14.6046
1 1.67603 9.38481 16.2611
2 1.659 7.49065 16.6182
1 26.6725 7.42534 17.0535
1 1.6898 7.42847 18.6072
2 -0.235032 7.45787 19.0422
1 -0.234147 9.37086 19.4281
1 -0.207679 7.44859 21.0302
2 -0.228288 9.36972 21.4191
1 1.7015 9.34077 21.8268
1 -0.197598 9.35987 23.4059
2 1.69611 9.39925 23.8087
1 1.69077 7.31851 24.3781
1 1.70053 9.49424 25.755
2 1.69167 7.72503 26.2516
1 -0.192516 7.38441 26.5792
1 1.62895 7.53244 28.1728
2 26.7156 11.6134 28.4952
1 26.6156 13.3914 0.399366
1 -0.227596 11.1892 1.79664
2 -0.189251 13.2186 2.31492
1 1.7533 13.2934 2.67478
1 -0.125649 13.2004 4.23054
2 1.73088 13.317 4.72692
1 1.69041 11.4257 5.14013
1 1.68323 13.1534 6.68933
2 1.6544 11.2793 7.09441
1 26.7072 11.3803 7.51482
1 1.78987 11.3928 9.11957
2 -0.197832 11.3516 9.49934
1 -0.229861 13.2457 9.90134
1 26.7359 11.329 11.479
2 -0.209207 13.2334 11.8797
1 1.79191 13.1593 12.2912
1 -0.218961 13.2394 13.843
2 1.66485 13.2279 14.3173
1 1.67303 11.3195 14.6899
1 1.60855 13.28 16.2912
2 1.68047 11.3267 16.654
1 26.7245 11.3208 17.0567
1 1.67378 11.3461 18.6292
2 26.7122 11.275 19.0404
1 26.6691 13.1527 19.4841
1 -0.223673 11.2815 21.0445
2 26.7097 13.2101 21.4267
1 1.6545 13.3094 21.791
1 -0.238961 13.2681 23.3826
2 1.68302 13.2653 23.7903
1 1.70743 11.3516 24.1648
1 1.63387 13.2674 25.7901
2 1.75949 11.3688 26.1567
1 -0.113392 11.3153 26.6365
1 1.66182 11.3331 28.1948
2 0.0332098 15.225 0.0850378
1 26.6946 17.0726 0.392946
1 26.69 15.1691 1.99871
2 26.726 17.0898 2.38674
1 1.7224 17.0404 2.73508
1 26.7236 17.0693 4.35696
2 1.6787 17.1129 4.74201
1 1.69749 15.2022 4.85116
1 1.67241 17.205 6.69573
1 26.5445 15.041 7.53105
1 1.73093 15.1128 9.37676
2 -0.168446 15.1627 9.50803
1 26.6953 17.1055 9.84688
1 -0.210309 15.145 11.4968
2 26.6649 17.013 11.9025
1 1.59534 17.0739 12.2985
1 -0.111107 17.0923 13.8575
2 1.80156 17.104 14.2528
1 1.70119 15.1731 14.6559
1 1.70196 17.0865 16.2447
2 1.72044 15.1941 16.6333
1 26.5065 15.2065 17.3032
1 1.77961 15.2361 18.5859
2 0.0740336 14.8554 19.0243
1 26.6929 15.4249 20.7339
2 -0.148436 17.1063 21.6207
1 1.71885 17.0815 21.8473
1 -0.211819 17.113 23.5043
2 1.7311 17.0848 23.8197
1 1.63077 15.1792 24.2071
1 1.71249 17.1179 25.7987
2 1.55277 15.1898 26.1627
1 26.5623 15.2008 26.7836
1 1.78578 15.1781 28.1147
2 26.6798 18.9998 -0.00623562
1 -0.206493 20.9312 0.391351
1 -0.1946 19.0007 1.95234
2 -0.229507 20.9256 2.38055
1 1.70472 20.9612 2.73879
1 -0.104562 20.9329 4.30899
2 1.76037 20.954 4.74967
1 1.69633 19.0253 5.13337
1 1.60244 20.8764 6.69025
2 1.73759 19.0422 7.15356
1 -0.143796 18.9946 7.69506
1 1.79621 19.0484 9.13012
2 0.0109058 19.026 9.59049
1 26.6515 20.9198 9.59484
1 26.7052 18.8808 11.4418
1 1.84522 20.9396 12.3196
1 -0.0956457 20.9461 14.0935
2 1.78166 20.9452 14.2771
1 1.71481 19.0145 14.6507
1 1.68482 20.9168 16.2604
2 1.70149 19.0036 16.6314
1 26.73 19.0297 17.0328
1 1.62558 18.9449 18.6207
2 26.7265 19.2695 18.9401
1 -0.220272 21.0275 19.4649
1 -0.21777 18.8324 20.8114
2 -0.215678 20.9611 21.4113
1 1.70607 20.9361 21.8129
1 -0.0683061 20.9825 23.3588
2 1.77075 20.919 23.7987
1 1.70767 18.9961 24.1814
1 1.7175 20.8155 25.7507
2 1.40131 18.9722 26.09
1 26.6222 19.024 26.6454
1 1.90902 18.9626 27.9432
2 26.7162 22.87 0.195438
1 -0.24441 24.7914 0.427379
1 26.7266 22.8679 2.06025
2 -0.223949 24.8218 2.39892
1 1.69354 24.8168 2.76947
1 -0.225837 24.8349 4.36633
2 1.7071 24.838 4.74933
1 1.70077 22.9016 4.88587
1 1.59811 24.968 6.71295
1 1.5847 22.8859 9.31331
2 26.6966 22.8636 9.69862
1 26.6853 24.8434 9.91546
1 26.7224 22.9912 11.5486
2 26.7263 24.8313 11.9597
1 1.6888 24.842 12.2891
1 -0.225632 24.8403 13.9066
2 1.70171 24.8299 14.2774
1 1.69145 22.8561 14.6595
1 1.72733 24.663 16.2112
2 1.70897 22.7919 16.6572
1 -0.232563 22.8693 17.0475
1 1.69958 22.8719 18.6167
2 -0.231922 22.8595 19.0213
1 -0.194667 24.6958 19.491
1 -0.208368 22.8946 21.0766
2 -0.240698 24.8207 21.4073
1 1.87244 24.7535 21.8802
1 -0.257482 24.7837 23.3207
2 1.50197 24.7212 23.6662
1 1.72224 23.1099 24.4884
2 2.00746 22.5418 26.2074
1 1.43403 22.9052 27.9043
2 3.55035 26.6443 28.5544
1 3.5942 1.55857 0.384937
1 3.60137 26.7088 1.97024
2 3.59216 1.6562 2.32729
1 5.53489 1.69281 2.59541
1 3.71526 1.6133 4.3764
2 5.53455 2.0717 4.37673
2 5.54248 26.3592 7.46884
1 3.73561 -0.138063 7.47579
1 5.53885 -0.260615 9.25891
2 3.63729 -0.208009 9.54214
1 3.62895 1.71199 9.88164
1 3.61768 -0.221747 11.5126
2 3.70713 1.70319 11.8447
1 5.58301 1.73685 12.2854
1 3.6635 1.74501 13.8521
2 5.55064 1.45885 14.1785
1 5.54673 26.6646 14.6667
1 5.6379 1.95749 16.0337
2 5.56862 -0.177248 16.6131
1 3.7514 -0.0189143 17.0789
1 5.54458 -0.188619 18.6654
2 3.68212 26.7138 19.0221
1 3.62378 1.69879 19.5531
1 3.61 26.5863 20.9866
2 3.51251 1.38295 21.3722
1 5.21364 1.76687 22.0387
2 5.84709 1.67247 23.8565
1 5.44539 -0.209832 24.1599
1 5.60813 1.71758 25.7635
2 5.57807 -0.222243 26.1768
1 3.70015 26.6621 26.5941
1 5.4337 26.7214 28.1267
1 3.61364 5.65992 0.42151
1 3.65302 3.59456 2.2829
2 3.65615 5.54587 2.3787
1 5.53974 5.51813 2.7871
1 3.63745 5.51165 4.40463
2 5.54539 5.56991 4.77486
1 5.54391 3.60427 5.34248
1 5.53717 5.67416 6.73287
2 5.59166 3.91003 7.22858
1 3.76756 3.51982 7.56263
1 5.62543 3.70472 9.14405
2 3.63826 3.5981 9.50089
1 3.58652 5.48341 9.86038
1 3.60776 3.60108 11.4586
2 3.60248 5.45163 11.8903
1 5.54706 5.51557 12.3386
1 3.63635 5.43338 13.8904
2 5.51472 5.783 14.2235
1 5.59014 5.28668 16.058
2 5.26861 3.617 16.7518
1 3.4546 3.51294 16.9143
1 5.5452 3.64874 18.584
2 3.64493 3.28868 18.7074
2 3.64939 5.9136 21.7416
1 5.44957 5.43831 21.7886
1 3.61098 5.53977 23.5231
2 5.55664 5.48519 23.8152
1 5.52797 3.54851 24.1921
1 5.61164 5.48 25.7721
2 5.25193 3.61333 26.093
1 3.44049 3.69415 26.3121
1 6.027 3.61838 27.7781
2 3.60038 7.52679 28.5493
1 3.61195 9.39654 0.32635
1 3.63184 7.47864 1.96294
2 3.61543 9.35024 2.34877
1 5.56895 9.39255 2.76023
1 3.7433 9.3888 4.29507
2 5.61871 9.41384 4.76225
1 5.53166 7.50819 5.12098
1 5.53836 9.42176 6.761
2 5.45578 7.52766 7.10792
1 3.58284 7.4922 7.55509
1 5.5496 7.43394 9.13175
2 3.62815 7.41741 9.54438
1 3.63161 9.39181 10.1004
1 3.59703 7.30939 11.516
2 3.61763 9.08844 11.9892
1 5.50563 9.41727 12.2842
1 3.6136 9.4108 13.8686
2 5.54268 9.43751 14.2915
1 5.50993 7.55675 14.6899
1 5.53453 9.40864 16.3036
2 5.53107 7.4635 16.6383
1 3.59917 7.43541 17.0246
1 5.32064 7.31132 18.575
2 3.51722 7.77288 18.9284
1 3.60928 9.53504 19.4235
1 3.60435 7.46779 20.8167
2 3.60315 9.42442 21.3909
1 5.49889 9.37211 21.8143
1 3.59416 9.32714 23.3889
2 5.52527 9.37446 23.7999
1 5.51778 7.42818 24.1774
1 5.50361 9.34676 25.7797
2 5.51217 7.41753 26.1668
1 3.55482 7.37638 26.5844
1 5.521 7.47206 28.1483
2 3.59716 11.3292 0.00193044
1 3.61846 13.4189 0.568688
1 3.61532 11.2196 1.94636
2 3.62873 12.9887 2.43392
1 5.49984 13.3112 2.75608
1 3.61984 13.2598 4.33019
2 5.54283 13.2609 4.74676
1 5.55488 11.3338 5.12113
1 5.59633 13.2652 6.72476
2 5.55566 11.3585 7.0902
1 3.6098 11.3117 7.36146
1 5.42445 11.4339 9.12279
2 3.61122 10.9389 9.14588
2 3.61845 13.5217 12.271
1 5.44867 13.1526 12.2963
1 3.61158 13.243 14.0602
2 5.56549 13.2244 14.3059
1 5.55622 11.3152 14.6801
1 5.56929 13.233 16.2641
2 5.53758 11.3254 16.6577
1 3.60394 11.336 17.0518
1 5.54535 11.3502 18.6253
2 3.61209 11.3941 19.0316
1 3.60016 13.2697 19.4413
1 3.59763 11.3562 21.0484
2 3.60681 13.2655 21.4266
1 5.53731 13.2367 21.8139
1 3.60383 13.2564 23.3982
2 5.53593 13.2299 23.7949
1 5.52393 11.2864 24.1975
1 5.54478 13.1038 25.7388
2 5.54282 11.2307 26.2037
1 3.62624 11.3648 26.6216
1 5.52907 11.3409 28.1818
2 3.66956 15.1854 28.3303
1 3.622 16.9497 0.606579
2 3.61207 17.3386 2.47942
1 5.49616 17.0304 2.76868
1 3.61294 17.0829 4.35962
2 5.54626 17.0781 4.75451
1 5.59009 15.1722 5.15864
1 5.57325 17.0676 6.74674
2 5.66201 15.1586 7.1251
1 3.73115 15.1608 7.4951
1 5.4253 15.1053 9.07678
2 3.57419 15.4432 9.36729
1 3.66001 17.2382 9.6471
1 3.69471 14.9248 11.159
1 3.73526 17.1199 14.0319
2 5.54572 17.1391 14.5019
1 5.53052 15.166 14.6383
1 5.55714 16.9944 16.3492
2 5.54918 15.1071 16.6575
1 3.63578 15.1486 17.0245
1 5.5502 15.1508 18.6345
2 3.65542 15.1924 19.0311
1 3.63575 17.1123 19.4397
1 3.62392 15.182 21.0183
2 3.62893 17.1037 21.4232
1 5.54625 17.1096 21.8081
1 3.63129 17.0968 23.4086
2 5.53474 17.1131 23.7968
1 5.54836 15.1741 23.9199
1 5.42416 17.3135 25.7476
1 3.48947 15.1661 26.4646
1 5.53675 15.1713 28.4371
2 3.60471 18.998 0.190832
1 3.56197 20.9775 0.354647
1 3.62221 19.1256 2.03901
2 3.61532 21.014 2.37862
1 5.53874 20.9571 2.76085
1 3.62804 20.9567 4.35773
2 5.53864 20.8763 4.74412
1 5.53502 18.9896 5.14134
1 5.52871 20.9238 6.74362
2 5.51367 19.0055 7.1293
1 3.63582 19.0526 7.49132
1 5.54819 19.0244 9.13852
2 3.66342 19.1215 9.50646
1 3.60194 21.0076 9.88836
1 3.71729 19.1616 11.4739
2 3.69356 21.0443 11.8594
1 5.57957 20.9622 12.2056
1 3.67657 20.9657 13.8528
2 5.56673 20.9398 14.0848
1 5.52288 19.1809 14.8901
2 5.53178 18.7816 16.7675
1 3.62822 19.0768 17.0488
1 5.39877 19.0558 18.618
2 3.50983 19.0228 19.0571
1 3.58244 20.9304 19.4272
1 3.60074 19.0267 21.0277
2 3.61943 20.9477 21.4104
1 5.54037 20.9513 21.8122
1 3.61763 21.0128 23.4053
2 5.52819 20.9946 23.7811
1 5.54579 19.0704 24.1892
1 5.47582 20.9649 25.7713
2 5.80476 19.1321 26.1007
1 5.30295 19.0074 27.9422
2 3.64877 22.8887 28.5736
1 3.57478 24.7694 0.36976
1 3.59742 22.8925 1.95266
2 3.59665 24.814 2.35673
1 5.51202 24.7929 2.75069
1 3.65182 24.8581 4.35961
2 5.53097 24.5165 4.63787
1 5.53716 22.7448 5.11687
1 5.53329 24.8076 6.52975
2 5.52438 22.8501 7.05703
1 3.70148 22.9147 7.55266
1 5.51678 22.9056 9.08924
2 3.57122 22.9009 9.49511
1 3.61107 24.8209 9.87924
1 3.60529 22.9218 11.4845
2 3.61982 24.8208 11.8863
1 5.53987 24.7688 12.3214
1 3.62101 24.7755 13.8829
2 5.53938 24.7471 14.2959
1 5.55289 22.6939 14.8851
1 5.5181 24.8895 16.2583
2 5.54038 23.1266 16.7487
1 3.66574 22.778 17.0358
1 5.54599 22.8699 18.6376
2 3.61083 22.8288 19.0045
1 3.63996 24.7694 19.279
1 3.62962 22.8562 20.9783
2 3.64933 24.727 21.1615
1 5.37461 24.8022 22.0231
2 5.78848 24.8378 23.8865
1 5.48713 22.9417 24.1988
1 5.56033 24.8311 25.7657
2 5.56923 22.8961 26.1905
1 3.7057 22.9491 26.6369
1 5.57062 22.8623 28.1902
1 7.52032 1.82842 0.461347
1 7.45818 26.716 2.24757
2 7.48169 1.65402 2.37684
1 9.3842 1.69309 2.79041
1 7.34809 1.60456 4.3794
2 9.36308 1.68161 4.74342
1 9.38973 -0.216738 5.13416
1 9.39073 1.69604 6.73206
2 9.31233 -0.164727 7.1459
1 7.35706 -0.158861 7.51996
1 9.35863 26.7033 9.12264
2 7.47288 26.7017 9.56622
1 7.48275 1.59487 9.94896
1 7.47157 26.7093 11.5567
2 7.47878 1.70683 11.88
1 9.37541 1.71099 12.2866
1 7.43377 1.77831 13.863
2 9.37508 1.69583 14.2558
1 9.38227 -0.22437 14.6754
1 9.40875 1.68464 16.261
2 9.15915 -0.219233 16.5737
1 7.37992 -0.183078 17.0555
1 9.30746 26.7244 18.4787
2 7.42764 -0.227148 19.048
1 7.41183 1.67215 19.4896
1 7.41074 -0.193391 21.0509
2 7.03347 1.67173 21.387
1 7.61781 1.63785 23.2022
2 9.3094 1.67901 24.0197
1 9.45736 -0.230753 24.236
1 9.30221 1.74637 25.8855
2 9.40548 -0.238925 26.2048
1 7.4809 26.726 26.236
1 9.52496 26.719 28.1289
2 7.57566 3.70517 0.2264
1 7.46487 5.57253 0.438017
1 7.45883 3.62031 2.09828
2 7.44908 5.57112 2.40123
1 9.35731 5.54262 2.71201
1 7.44757 5.54084 4.36659
2 9.33874 5.52141 4.72911
1 9.35558 3.58129 5.12915
1 9.36435 5.40068 6.67832
2 9.40324 3.55349 7.13233
1 7.43694 3.54921 7.53362
1 9.36023 3.66658 9.09522
2 7.4925 3.35079 9.43678
1 7.48318 3.80619 11.2821
2 7.46572 5.53395 12.0862
1 9.37316 5.54864 12.3368
1 7.41379 5.46397 13.9603
2 9.38197 5.52763 14.3
1 9.39204 3.60271 14.6889
1 9.35235 5.48807 16.2707
2 9.66644 3.59535 16.5708
1 9.16856 3.59947 18.4058
2 7.44882 3.53408 19.2431
1 7.45946 5.37969 19.5316
1 7.48259 3.52503 21.1263
2 7.44337 5.50881 21.4574
1 9.38795 5.53192 21.8276
1 7.44488 5.51724 23.4009
2 9.38286 5.52094 23.7906
1 9.36512 3.60322 24.2578
1 9.31792 5.50071 25.7835
2 9.65939 3.63938 26.1386
1 9.27413 3.6546 27.9996
2 7.44583 7.47967 -0.0127921
1 7.46246 9.40353 0.384211
1 7.45676 7.48725 1.97595
2 7.47625 9.4053 2.36593
1 9.40611 9.40593 2.75288
1 7.49811 9.40172 4.35225
2 9.41319 9.40414 4.74175
1 9.37661 7.46804 4.86111
1 9.39463 9.53045 6.69273
1 7.3351 7.4762 7.57585
1 9.33936 7.39026 9.39009
2 7.45566 7.74271 9.43852
1 7.43767 9.51282 9.93118
1 7.42828 7.2839 11.3027
2 7.44503 9.41452 11.8761
1 9.3762 9.36545 12.2812
1 7.46182 9.36674 13.8361
2 9.39467 9.38677 14.2696
1 9.3891 7.45011 14.6701
1 9.40677 9.39098 16.2523
2 9.39099 7.4442 16.6501
1 7.44417 7.43537 16.7737
1 9.52901 7.46047 18.5937
1 7.43887 9.519 19.4703
1 7.42322 7.4458 21.3148
2 7.37698 9.39304 21.4098
1 9.247 9.39233 21.8577
1 7.43618 9.39226 23.4205
2 9.37099 9.39127 23.8053
1 9.39432 7.44583 24.1926
1 9.36654 9.38688 25.7854
2 9.29617 7.45019 26.1576
1 7.4277 7.462 26.581
1 9.3508 7.47389 28.168
2 7.46563 11.326 -0.0134407
1 7.46122 13.2491 0.380673
1 7.45033 11.3324 1.96578
2 7.45004 13.261 2.35872
1 9.39058 13.232 2.74105
1 7.45837 13.2434 4.32974
2 9.38622 13.2369 4.7048
1 9.39579 11.3379 5.13359
1 9.37682 13.291 6.68232
2 9.3709 11.4135 7.13178
1 7.44427 11.3337 7.55233
1 9.37631 11.3455 9.10066
2 7.44005 11.4028 9.51797
1 7.53307 13.3136 9.9241
1 7.45865 11.3609 11.5057
2 7.4374 13.2632 11.9047
1 9.38265 13.2933 12.2827
1 7.45829 13.2569 13.8555
2 9.39475 13.2586 14.2596
1 9.38675 11.3198 14.666
1 9.39732 13.2516 16.2307
2 9.41547 11.3288 16.6462
1 7.47798 11.3269 17.0447
1 9.40425 11.3186 18.6204
2 7.47345 11.3857 19.0129
1 7.47536 13.2453 19.4401
1 7.45862 11.3319 21.0246
2 7.46499 13.2424 21.4277
1 9.39327 13.2518 21.8259
1 7.46549 13.2456 23.4085
2 9.39155 13.2458 23.8027
1 9.38381 11.324 24.2036
1 9.43508 13.261 25.79
2 9.39197 11.3202 26.1808
1 7.4641 11.3105 26.5922
1 9.39892 11.3348 28.165
2 7.43986 15.1801 28.5596
1 7.42818 17.1146 0.370069
1 7.50143 15.1849 1.96981
2 7.46308 17.0948 2.3612
1 9.44292 17.1716 2.72734
1 7.47496 17.1126 4.33054
2 9.39926 17.1233 4.69783
1 9.39068 15.1874 5.03349
1 9.44311 17.1027 6.68638
2 9.40069 15.1943 6.91432
1 7.65506 15.1929 7.7293
2 7.18534 15.1688 9.58604
1 7.55444 17.053 9.89276
1 7.346 15.2142 11.4984
2 7.63362 17.0967 11.8177
1 9.38103 17.0903 12.3648
1 7.21362 17.1484 13.6725
2 9.39547 17.0987 14.2676
1 9.39081 15.2041 14.6565
1 9.39216 17.1008 16.2235
2 9.41864 15.1663 16.6406
1 7.47974 15.1476 17.0339
1 9.38026 15.1805 18.6086
2 7.46662 15.1059 19.0133
1 7.45917 16.9681 19.4802
1 7.46944 15.1543 21.0304
2 7.46409 17.0898 21.4331
1 9.38529 17.1002 21.8196
1 7.46168 17.0927 23.4329
2 9.39156 17.0956 23.7992
1 9.43474 15.1702 24.2183
1 9.44451 17.0807 25.785
2 9.50757 15.1722 26.1892
1 7.5812 15.1824 26.5808
1 9.31963 15.2004 28.1434
2 7.48661 19.005 28.5552
1 7.43134 20.8956 0.372108
1 7.39745 19.0005 1.94357
2 7.42241 20.9266 2.37221
1 9.28974 20.8689 2.79246
1 7.45424 20.918 4.39401
2 9.3837 20.9213 4.7429
1 9.4177 19.0126 5.13255
1 9.57065 20.749 6.67612
2 9.14055 18.9338 7.04882
1 7.38289 19.0241 7.54838
1 9.58522 19.013 8.91141
2 7.46961 19.0091 9.48684
1 7.5033 20.9187 9.8972
1 7.42 18.9699 11.4543
2 7.49295 20.9283 11.8584
1 9.40885 20.9133 12.2694
1 7.47252 20.9401 13.8401
2 9.39304 20.9435 14.2665
1 9.40859 18.9941 14.6466
1 9.39014 20.9505 16.2423
2 9.3782 19.0328 16.6388
1 7.41551 19.1057 16.7588
1 9.5147 19.0155 18.5791
1 7.47516 21.0944 19.4881
1 7.47242 19.0312 21.3091
2 7.46243 20.9725 21.4318
1 9.39104 20.9786 21.8137
1 7.45927 20.9895 23.4245
2 9.39463 20.9614 23.7949
1 9.37549 19.0258 24.1901
1 9.39547 20.9555 25.7722
2 9.4275 19.0215 26.1551
1 7.56184 19.0252 26.6164
1 9.44141 19.0095 28.1689
2 7.4812 22.7775 28.5509
1 7.46835 24.654 0.408234
1 7.46615 22.8464 1.974
2 7.38864 24.7953 2.33933
1 9.2472 24.792 2.80985
1 7.39759 24.8439 4.37112
2 9.36561 24.8092 4.74706
1 9.43512 22.8441 4.83267
1 9.33868 24.9335 6.69443
1 7.34294 22.8853 7.55172
1 9.28207 22.8848 9.37966
2 7.3921 22.8635 9.52652
1 7.43367 24.8049 9.90228
1 7.4524 22.8683 11.5035
2 7.46166 24.7884 11.8977
1 9.39739 24.7995 12.2824
1 7.46421 24.7675 13.8901
2 9.39922 24.8043 14.2662
1 9.39068 22.8856 14.683
1 9.42959 24.8543 16.2647
2 9.38659 22.8853 16.6505
1 7.43173 22.851 17.0509
1 9.39007 22.9002 18.6284
2 7.47177 22.9608 19.0339
1 7.43478 24.8459 19.4611
1 7.42297 22.9202 21.0347
2 7.41018 24.8272 21.4473
1 9.3146 24.8205 21.8016
1 7.55608 24.8317 23.4095
2 9.46636 24.815 23.7792
1 9.43897 22.8944 24.1955
1 9.43753 24.7962 25.7749
2 9.39962 22.8735 26.1843
1 7.47503 22.8669 26.5724
1 9.42052 22.8145 28.1887
2 11.3861 -0.213253 -0.0143293
1 11.285 1.73148 0.377047
1 11.3319 -0.0849738 1.92448
2 11.3157 1.78112 2.39164
1 13.241 1.72486 2.78428
1 11.3461 1.7454 4.37626
2 13.2569 1.67719 4.74518
1 13.2346 26.7101 5.10922
1 13.3185 1.55424 6.69308
2 12.9777 26.6739 7.02196
1 11.2152 26.7247 7.55547
1 13.4317 -0.229836 8.88494
2 11.3211 26.7156 9.49229
1 11.3305 1.68151 9.88218
1 11.3371 26.7307 11.4521
2 11.3119 1.68698 11.8845
1 13.241 1.69175 12.2959
1 11.3075 1.68967 13.8728
2 13.2365 1.67864 14.2659
1 13.2331 26.7267 14.6751
1 13.2211 1.62711 16.2616
2 13.5279 26.7258 16.5678
1 13.4269 -0.137634 18.4747
1 11.2367 1.80887 19.4388
1 11.3213 26.7224 21.2825
2 11.5266 1.6553 21.3064
1 13.3141 1.75705 21.6094
1 10.886 1.75452 23.0583
1 13.2217 26.5884 24.2379
1 13.2385 1.72877 25.9465
2 13.2447 -0.213028 26.1791
1 11.3346 -0.186783 26.5413
1 13.2465 -0.215908 28.1673
2 11.3061 3.6256 -0.00860669
1 11.3175 5.54114 0.363862
1 11.2952 3.65452 1.96323
2 11.2921 5.55277 2.33671
1 13.3549 5.53655 2.81777
1 11.2032 5.53551 4.29549
2 12.9853 5.53177 4.61604
1 13.314 3.88124 5.38805
2 13.2527 3.32474 7.22007
1 11.3654 3.64509 7.51859
1 13.2362 3.61451 9.11172
2 11.3023 3.62988 9.51258
1 11.3194 5.54159 9.91556
1 11.3074 3.61116 11.484
2 11.3107 5.54069 11.8992
1 13.2402 5.53228 12.2969
1 11.3153 5.51846 13.8868
2 13.2479 5.5194 14.2708
1 13.2552 3.59156 14.6822
1 13.2797 5.52025 16.2552
2 13.2922 3.57677 16.6549
1 11.4288 3.6245 17.093
1 13.3218 3.53846 18.6791
2 11.3355 3.66496 19.0092
1 11.3173 5.50965 19.4297
1 11.2177 3.55503 20.9925
2 11.3057 5.42086 21.4313
1 13.2514 5.47305 21.8025
1 11.3495 5.46383 23.4093
2 13.2397 5.76522 23.6915
1 13.298 5.10854 25.4283
2 13.3134 3.53645 26.4212
1 11.4333 3.60902 26.6255
1 13.2742 3.60527 28.2929
2 11.2608 7.46617 28.5609
1 11.3335 9.3838 0.371977
1 11.3496 7.45549 1.96257
2 11.3173 9.38833 2.3573
1 13.233 9.37867 2.77422
1 11.3465 9.35015 4.36304
2 13.2528 9.42822 4.74222
1 13.3378 7.17856 5.37923
1 13.2836 9.50186 6.68858
2 13.3493 7.73895 7.20394
1 11.5321 7.35522 7.55527
1 13.2759 7.49823 9.11964
2 11.3049 7.44829 9.5092
1 11.2926 9.37943 9.89142
1 11.3311 7.46713 11.4999
2 11.3155 9.39295 11.8816
1 13.2463 9.42702 12.3005
1 11.3297 9.42465 13.8682
2 13.2427 9.38896 14.2754
1 13.2452 7.43721 14.6416
1 13.2479 9.29575 16.2186
2 13.2554 7.41682 16.6458
1 11.3339 7.41856 17.0323
1 13.2741 7.47418 18.6322
2 11.3995 7.45508 19.0523
1 11.3441 9.40053 19.1322
1 11.3457 7.30521 20.994
1 13.3656 9.4221 21.8023
1 11.2995 9.41084 23.6853
2 13.2142 9.46645 23.7824
1 13.2657 7.57356 23.9532
1 13.3199 9.53163 25.7691
1 11.1586 7.42199 26.6059
1 13.1461 7.44618 28.2929
2 11.3231 11.3242 28.5542
1 11.3736 13.2736 0.344715
1 11.3143 11.314 1.94401
2 11.3217 13.1966 2.3639
1 13.2309 13.2363 2.76708
1 11.3142 13.2409 4.34779
2 13.2404 13.2635 4.74365
1 13.2736 11.3572 5.13601
1 13.2408 13.2632 6.73412
2 13.2276 11.3747 7.12434
1 11.2843 11.3413 7.50202
1 13.1402 11.3431 9.07492
2 11.2613 11.3396 9.50524
1 11.2155 13.3102 9.91359
1 11.3084 11.325 11.4753
2 11.2975 13.2565 11.8707
1 13.2472 13.2434 12.1789
1 11.3306 13.2513 13.8321
2 13.2441 13.259 14.0643
1 13.2415 11.5215 14.8853
2 13.2437 11.0594 16.7391
1 11.3677 11.3907 17.0402
1 13.2567 11.3245 18.6375
2 11.3203 11.3433 19.0339
1 11.3094 13.2694 19.4341
1 11.3168 11.4584 20.9763
2 11.3212 13.3287 21.4359
1 13.2538 13.2395 21.8026
1 11.3192 13.2572 23.4013
2 13.2501 13.2388 23.7656
1 13.2277 11.3521 24.1952
1 13.2422 13.2888 25.7489
2 13.2424 11.4113 26.192
1 11.3198 11.3116 26.5782
1 13.2388 11.3409 28.1622
2 11.0681 15.1989 0.0852318
1 11.3493 17.2036 0.564116
1 11.3345 15.075 1.9431
2 11.3222 16.8385 2.4578
1 13.1888 17.1798 2.76288
1 11.3172 17.0989 4.34354
2 13.2319 17.1088 4.74795
1 13.1975 15.1863 5.14363
1 13.1491 17.1204 6.73726
2 13.2255 15.1871 7.1079
1 11.1135 15.1744 7.74083
1 13.245 15.1563 9.0179
2 11.5116 15.1794 9.60185
1 11.2589 17.07 9.94524
1 11.4036 15.2157 11.505
2 11.1305 17.0905 11.8543
1 11.5813 17.0403 13.6917
2 13.2656 17.0652 14.5065
1 13.2712 14.9973 14.9266
1 13.2686 17.1939 16.353
2 13.3064 15.4118 16.7955
1 11.3651 15.1204 17.04
1 13.123 15.1416 18.6358
2 11.2421 15.1718 19.0536
1 11.3192 17.0999 19.4275
1 11.3014 15.2002 21.0222
2 11.3098 17.1085 21.4199
1 13.2271 17.1115 21.81
1 11.3132 17.104 23.4031
2 13.2425 17.1199 23.7713
1 13.2495 15.1787 24.102
1 13.254 17.091 25.7446
2 13.2524 15.1867 25.9788
1 11.5291 15.2196 26.826
2 11.3437 18.971 28.36
1 11.3714 20.653 0.655026
2 11.0108 21.1649 2.37389
1 11.5356 20.8898 4.10188
2 13.2496 20.9368 4.91463
1 13.2387 19.0277 5.16967
1 13.2051 20.9218 6.78509
2 13.4117 19.0035 7.05139
1 13.0353 18.9929 8.90639
2 11.32 19.0308 9.70016
1 11.3524 20.9622 9.9535
1 11.4081 18.9747 11.5674
2 11.3429 20.9464 11.9271
1 13.2488 20.9604 12.3031
1 11.3201 20.9641 13.884
2 13.2527 20.9601 14.2744
1 13.2496 19.0297 14.6869
1 13.2695 20.9779 16.2521
2 13.2465 19.0914 16.6734
1 11.3263 19.044 17.0388
1 13.2484 19.0585 18.6436
2 11.3805 19.0202 19.0523
1 11.3093 20.9382 19.4514
1 11.3199 19.0262 21.0253
2 11.3242 20.9691 21.4225
1 13.2418 20.9429 21.8261
1 11.3158 20.9464 23.3948
2 13.2411 20.9439 23.8035
1 13.2604 19.0288 24.1842
1 13.2512 20.9385 25.7898
2 13.2698 19.0173 26.1471
1 11.3329 19.0231 26.4881
1 13.2421 19.0009 28.122
2 11.34 22.8995 28.5362
1 11.3255 24.8196 0.0689927
1 11.4244 22.8352 1.85467
1 13.3427 24.8228 2.79727
1 11.3149 24.8106 4.68213
2 13.2558 24.7991 4.72076
1 13.23 22.8581 5.06614
1 13.3311 24.827 6.70492
2 13.3383 22.8968 6.92524
1 11.7708 22.9062 7.89074
2 11.0928 22.8687 9.61152
1 11.3984 24.7805 9.90449
1 11.3242 22.8801 11.5009
2 11.3301 24.8102 11.8943
1 13.243 24.8018 12.2861
1 11.3174 24.8127 13.8683
2 13.2411 24.8081 14.2638
1 13.2478 22.8988 14.6819
1 13.1911 24.8577 16.2729
2 13.2552 22.9075 16.6475
1 11.3167 22.8659 17.0447
1 13.2482 22.8433 18.6106
2 11.3295 22.8043 19.0059
1 11.3537 24.6876 19.451
1 11.3775 22.9109 21.0172
2 11.0818 24.8168 21.3154
1 11.4915 24.7779 23.1915
2 13.2273 24.7137 23.9883
1 13.2474 22.8479 24.227
1 13.2251 24.7831 25.8709
2 13.2462 22.8507 26.2085
1 11.3199 22.8345 26.5868
1 13.2356 22.8287 28.1734
2 15.1172 26.7136 -0.00934143
1 15.173 1.6448 0.395801
1 15.1684 26.7219 1.9751
2 15.1738 1.69163 2.36785
1 17.1143 1.67108 2.82168
1 15.1389 1.73383 4.34955
2 17.0067 1.6524 4.76447
1 17.1086 26.7332 5.1299
1 16.9747 1.65214 6.71596
2 17.3662 -0.222172 7.02946
1 16.9197 -0.230228 8.89838
2 15.17 -0.160449 9.69361
1 15.1648 1.71656 9.93398
1 15.1775 -0.216621 11.5746
2 15.17 1.71162 11.9269
1 17.0972 1.67606 12.3099
1 15.1815 1.66265 13.9032
2 17.0978 1.68901 14.2806
1 17.112 26.5463 14.8707
1 17.1173 1.79117 16.2249
2 17.1592 0.0268024 16.7286
1 15.3335 26.6378 17.0309
1 17.0952 -0.191819 18.6551
2 15.2473 26.476 18.9592
1 15.1411 0.20974 20.6716
2 15.1547 1.79331 21.6752
1 17.0118 1.71048 21.9112
1 15.2711 1.79417 23.5345
2 17.1732 1.69326 23.8599
1 17.0625 26.7279 24.1743
1 17.123 1.6862 25.8105
2 17.0787 -0.236647 26.1612
1 15.1497 -0.232932 26.5608
1 16.9857 -0.174823 28.1127
2 15.2226 3.49859 28.5552
1 15.2212 5.40181 0.233592
1 15.1846 3.60919 1.93035
2 15.0973 5.54656 2.0729
1 16.6582 5.50928 3.11763
2 17.4106 5.63334 4.80808
1 17.267 3.64257 5.10975
1 17.0922 5.53272 6.68584
2 17.0032 3.6063 7.13966
1 15.1151 3.67896 7.5389
1 17.0843 3.61905 9.10091
2 15.165 3.63374 9.53048
1 15.1704 5.54137 9.9211
1 15.1736 3.62324 11.5074
2 15.1703 5.54505 11.8958
1 17.1071 5.54284 12.2872
1 15.1752 5.54046 13.8688
2 17.1072 5.5588 14.2643
1 17.1043 3.64496 14.6367
1 17.1107 5.55569 16.2554
2 17.1032 3.66393 16.6293
1 15.1831 3.59861 17.0733
1 17.0954 3.61064 18.6353
2 15.1999 3.88069 18.9631
1 15.1788 5.64452 19.4695
1 15.2059 3.49092 20.8324
2 15.1829 5.53073 21.4075
1 17.0886 5.54208 21.8724
1 15.1325 5.47743 23.3847
2 17.0602 5.54353 23.8385
1 17.115 3.63235 24.2203
1 17.0308 5.59691 25.8173
2 17.096 3.61892 26.1855
1 15.198 3.56375 26.6146
1 17.1544 3.51526 28.1893
1 15.1484 9.53458 0.441747
1 15.1613 7.44559 2.22848
2 15.1185 9.34456 2.36941
1 17.1183 9.5286 2.77514
1 15.1477 9.36767 4.34687
2 17.0684 9.32673 4.75286
1 17.0654 7.44512 5.13816
1 17.0678 9.3983 6.68765
2 17.0795 7.46189 7.12617
1 15.1673 7.39699 7.53002
1 17.077 7.4606 9.09638
2 15.181 7.45769 9.52532
1 15.2178 9.39705 9.90045
1 15.1686 7.47012 11.4963
2 15.1775 9.38367 11.9048
1 17.0901 9.38746 12.2971
1 15.1544 9.41857 13.8836
2 17.1006 9.39509 14.2709
1 17.095 7.47656 14.6679
1 17.0899 9.39727 16.2587
2 17.1169 7.47256 16.6397
1 15.1957 7.46552 17.0652
1 17.1692 7.3998 18.6211
2 15.2058 7.49901 19.0416
1 15.2409 9.37833 19.4458
1 15.2069 7.49621 21.0678
2 15.2933 9.39781 21.4336
1 17.3153 9.35654 22.0284
1 15.1058 9.42316 23.3807
2 16.863 9.39387 23.8901
1 17.132 7.50078 24.2006
1 17.0213 9.3481 25.8016
2 17.3236 7.47014 26.1154
1 17.2534 7.56234 28.0244
2 15.1449 11.4129 28.5399
1 15.1127 13.3166 0.388152
1 15.3251 11.3464 1.97987
2 15.1029 13.3071 2.36468
1 17.0946 13.119 2.6804
1 15.1671 13.2657 4.32435
2 17.0638 13.2997 4.70881
1 17.0856 11.3071 4.90357
1 17.0961 13.199 6.66214
2 17.0992 11.3017 6.83875
1 15.3739 11.3106 7.72119
2 14.9048 11.2284 9.57853
1 15.3035 13.0398 9.93679
1 15.1672 11.2902 11.4948
2 15.191 13.2641 11.8651
1 17.0972 13.2536 12.2744
1 15.1569 13.2337 13.8448
2 17.0911 13.2228 14.2309
1 17.0998 11.3073 14.663
1 17.1106 13.2321 16.2021
2 17.1 11.3197 16.6396
1 15.1263 11.3692 17.0461
1 17.0934 11.3299 18.5973
2 15.1845 11.2655 19.0285
1 15.2525 13.1393 19.4752
1 15.2173 11.2901 21.0269
2 15.1756 13.2259 21.4273
1 17.0969 13.2449 21.8213
1 15.1836 13.2129 23.4145
2 17.1078 13.226 23.8046
1 17.1604 11.2673 24.2148
1 17.0635 13.2426 25.7928
2 17.0213 11.3027 26.1856
1 15.1716 11.3447 26.6007
1 17.1251 11.2982 28.342
2 15.43 15.1938 0.0743761
1 15.1158 17.0717 0.390799
1 15.1396 15.204 1.97084
2 15.1302 17.1407 2.37834
1 17.0778 17.0994 2.74235
1 15.1496 17.1032 4.34957
2 17.0913 17.0955 4.73155
1 17.1065 15.1693 5.11558
1 17.1095 16.9618 6.6797
2 17.1028 15.0826 7.12457
1 15.1688 15.1806 7.19155
1 17.1893 15.1681 9.06322
1 15.1008 17.2141 9.9508
1 15.074 15.2209 11.7731
2 15.4259 17.1014 11.8139
1 17.1907 17.1053 12.301
1 14.9648 17.0759 13.6848
2 17.0787 17.0943 14.2436
1 17.0776 15.1965 14.557
1 17.038 17.0587 16.4324
2 17.073 15.1203 16.4066
1 15.2224 15.117 16.8897
1 15.3349 17.2112 19.4633
1 15.2017 15.1647 21.2617
2 15.1125 17.1053 21.4141
1 17.0592 17.0916 21.6767
1 15.1777 17.1086 23.3886
2 17.0822 17.0939 23.7706
1 17.0645 15.1663 24.2113
1 17.0641 17.0828 25.7791
2 17.088 15.1686 26.1762
1 14.979 15.1793 26.7971
1 17.1849 15.1773 28.1235
2 15.1494 19.0074 28.5513
1 15.1778 20.9436 0.379335
1 15.0974 19.073 1.95516
2 15.428 20.9517 2.2788
1 17.1924 20.96 2.77742
1 14.9962 20.9451 4.14941
2 17.0944 20.9752 4.72888
1 17.0549 19.0417 4.84647
1 17.0648 21.1139 6.66168
1 15.1624 19.0229 7.58076
1 17.0752 19.0291 9.44737
2 15.1379 19.0355 9.47771
1 15.0492 20.8522 9.95431
1 15.0761 18.9809 11.509
2 15.1576 20.9216 11.9052
1 17.0788 20.9565 12.2931
1 15.1842 20.9703 13.8925
2 17.0801 20.9335 14.2701
1 17.0557 18.9549 14.6597
1 17.1044 20.865 16.2046
2 17.1032 19.0077 16.6196
1 15.1797 19.0438 17.0679
1 17.1111 18.9311 18.6307
2 15.1222 19.1083 19.0349
1 15.1881 20.9551 19.4308
1 15.1507 19.0308 21.0274
2 15.1681 20.8883 21.4436
1 17.0902 20.9469 21.8141
1 15.1714 20.9399 23.407
2 17.0865 20.951 23.8013
1 17.0964 19.0161 24.1962
1 17.0993 20.9465 25.7766
2 17.0987 19.0175 26.1819
1 15.1791 19.0238 26.5779
1 17.0843 19.0071 28.1738
2 15.1577 22.8721 28.5526
1 15.1802 24.7939 0.382942