1708
Atoms. Timestep: 1453
2 27.0015 27.0763 -0.245551
1 -0.553519 1.45957 0.191069
1 -0.561145 27.0856 1.75034
2 27.0176 1.45734 2.1888
1 1.42113 1.45507 2.61383
1 -0.541762 1.46936 4.17366
2 1.41927 1.54118 4.60036
1 1.42802 -0.323022 5.11804
1 1.39236 1.50813 6.63618
2 1.4101 27.0708 7.0517
1 -0.52409 27.0454 7.42452
1 1.40833 27.0567 9.03613
2 -0.522114 -0.534968 9.4249
1 27.0398 1.44418 9.77026
1 27.087 -0.528474 11.3993
2 27.1557 1.44518 11.7237
1 1.52931 1.46581 11.8451
1 27.1204 1.46991 13.605
1 1.45972 26.8221 14.2888
1 1.46616 1.61627 16.6553
1 26.8648 27.1081 17.2012
1 1.42447 27.0182 19.0803
2 -0.555056 27.0405 19.1216
1 27.0265 1.5062 19.4984
1 -0.588866 -0.328475 21.0404
2 27.0205 1.54396 21.5213
1 1.41194 1.45758 21.9315
1 -0.52906 1.44556 23.511
2 1.413 1.42782 23.9278
1 1.42894 27.0331 24.3544
1 1.38279 1.43152 25.9141
2 1.39411 -0.525674 26.3314
1 -0.557582 27.0495 26.7477
1 1.38451 27.0653 28.3204
2 27.0027 3.40719 -0.218315
1 26.9991 5.33514 0.226177
1 27.0202 3.39774 1.77608
2 -0.533529 5.36236 2.18982
1 1.42817 5.34359 2.60619
1 -0.534391 5.34658 4.17453
2 1.43112 5.35268 4.58917
1 1.41656 3.43179 5.01529
1 1.41223 5.34796 6.6026
2 1.39239 3.42169 7.02111
1 -0.552238 3.4229 7.43089
1 1.3967 3.43373 9.01395
2 27.0096 3.4155 9.41235
1 -0.566926 5.38607 9.8089
1 27.052 3.4208 11.3851
2 -0.52989 5.38204 11.7735
1 1.46153 5.36515 11.8859
1 26.8855 5.42862 13.7075
1 1.46956 3.49402 14.8935
1 1.43906 5.42786 16.6853
2 1.46568 3.50627 16.7771
1 27.0815 3.44789 17.0806
1 1.475 3.42355 18.7419
2 -0.432065 3.44417 19.0982
1 27.0749 5.40598 19.5219
1 27.0568 3.44445 21.0927
2 -0.430127 5.39389 21.5076
1 1.45306 5.37187 21.9297
1 27.0937 5.35803 23.5562
2 1.43603 5.3375 23.9464
1 1.41938 3.38251 24.3492
1 1.38802 5.33825 25.9313
2 1.38248 3.38448 26.3354
1 -0.555622 3.39153 26.7712
1 1.38577 3.40451 28.3389
2 -0.557513 7.49439 -0.18374
1 0.216062 9.28565 0.243025
1 27.0248 7.30348 1.78809
2 27.0463 9.2776 2.07667
1 1.47658 9.26222 2.63361
1 -0.490065 9.25831 4.19271
2 1.45675 9.25488 4.57177
1 1.44281 7.25798 4.9908
1 1.43518 9.0913 6.50277
2 1.43503 7.2324 7.03352
1 -0.527671 7.30148 7.45398
1 1.4321 7.33526 9.02057
2 27.0266 7.34712 9.43244
1 -0.522053 9.30601 9.88309
1 27.0586 7.34224 11.4114
2 -0.423846 9.30286 11.868
1 1.48494 9.28887 12.2635
1 27.116 9.32173 13.8985
2 1.47849 9.38506 14.2622
1 1.46432 7.47063 14.7405
1 1.45935 9.21424 16.2289
2 1.43886 7.33439 16.72
1 -0.524961 7.37512 17.1173
1 1.44017 7.38359 18.7018
2 -0.520146 7.35954 19.1
1 27.0379 9.31054 19.5235
1 27.05 7.34936 21.0889
2 27.0296 9.30479 21.5095
1 1.43015 9.26362 21.937
1 -0.535535 9.26801 23.5019
2 1.43369 9.16102 23.9174
1 1.4212 7.28344 24.3618
1 1.42589 9.18372 25.9858
2 1.32923 7.26481 26.3711
1 26.9828 7.37686 26.7968
1 1.39653 7.1867 28.3558
2 -0.528712 11.0896 -0.198462
1 27.0601 13.1198 0.139625
1 27.0499 11.2407 1.79601
2 27.0548 13.1275 2.14385
1 1.52768 13.2381 2.54336
1 -0.303526 13.2365 4.07492
2 1.57248 13.2314 4.57116
1 1.49165 11.2448 4.68767
1 1.41053 13.3909 6.52353
1 26.8412 11.1929 7.59233
1 1.43876 11.2788 9.41143
2 -0.558905 11.2642 9.51398
1 -0.55366 13.2276 9.88912
1 -0.535332 11.2721 11.4765
2 27.0289 13.2481 11.8622
1 1.43787 13.2781 12.2456
1 -0.52303 13.2667 13.8367
2 1.44238 13.2948 14.2109
1 1.46585 11.3264 14.3139
1 1.4345 13.4383 16.1478
1 26.9277 11.2957 17.1515
1 1.46441 11.2514 19.0465
2 -0.472235 11.2727 19.1214
1 -0.584525 13.2439 19.4855
1 -0.59987 11.2667 21.1005
2 -0.716868 13.2432 21.4547
1 1.16163 13.2322 21.6305
1 26.7656 13.246 23.4158
1 1.43697 10.9981 24.4411
1 1.40916 12.9757 26.1843
2 1.43594 11.1018 26.3934
1 -0.547943 11.1469 26.7985
1 1.50987 11.3048 28.3235
2 -0.537373 15.1752 -0.227545
1 27.0332 17.1638 -0.249966
1 26.9797 14.9832 1.67518
1 1.5442 17.2131 2.55922
1 -0.355532 17.9442 4.38833
2 1.34453 17.1729 4.59592
1 1.6335 15.1923 5.03951
1 1.41464 17.1936 6.62799
2 1.37557 15.2825 7.03212
1 27.0273 15.182 7.45472
1 1.37612 15.2146 9.08735
2 -0.537773 15.2048 9.46771
1 27.0374 17.1776 9.87441
1 27.0239 15.2111 11.4459
2 -0.52468 17.1709 11.8547
1 1.43979 17.1682 12.2646
1 27.022 17.1413 13.8348
2 1.42866 17.166 14.2347
1 1.43122 15.2584 14.6195
1 1.42395 17.1636 16.2418
2 1.42987 15.2864 16.6737
1 -0.53998 15.2108 17.1076
1 1.4233 15.1943 18.6523
2 27.0128 15.2088 19.0883
1 -0.565896 17.1642 19.5131
1 -0.596167 15.2182 21.0734
2 26.9321 17.1773 21.507
1 1.232 17.246 21.993
1 -0.594953 17.2273 23.5595
2 1.42014 17.3532 23.9237
1 1.4118 15.4741 24.0559
1 1.41212 17.4525 25.8692
1 26.8743 15.1266 26.8289
1 1.42609 15.1883 28.7646
2 -0.527204 19.1645 -0.371906
1 -0.511177 21.1686 -0.253175
1 27.0273 19.1935 1.48807
1 1.65445 21.0984 2.73299
1 27.0803 21.1442 4.5512
2 1.5221 21.069 4.67889
1 1.63524 19.2086 5.10759
1 1.50827 21.0964 6.71944
2 1.57349 19.1486 7.06658
1 -0.305864 19.1639 7.56702
1 1.52116 19.1197 9.09585
2 27.0809 19.1407 9.49054
1 27.0957 21.1028 9.85162
1 27.11 19.1202 11.4488
2 27.1077 21.0873 11.8082
1 1.51967 21.0654 12.1896
1 -0.324024 21.0808 13.7349
2 1.53918 21.0443 14.2069
1 1.42372 19.0777 14.6027
1 1.42256 20.9088 16.1483
2 1.41302 19.0484 16.6303
1 -0.595282 19.0527 17.0639
1 1.24051 19.123 18.5654
2 26.9277 19.1134 19.0824
1 -0.548782 21.0492 19.4845
1 -0.566843 19.1235 21.0801
2 27.0367 21.0181 21.5217
1 1.42609 21.165 21.9446
1 27.0392 21.1278 23.522
2 1.43535 21.1957 23.9264
1 1.44665 19.2765 24.3035
1 1.44115 21.1963 25.9241
2 1.44053 19.309 26.338
1 -0.539148 19.2048 26.6765
1 1.44207 19.1957 28.306
2 27.0543 23.1422 -0.272917
1 -0.569185 25.147 0.113936
1 -0.544332 23.2994 1.65612
2 -0.576668 25.1794 2.1138
1 1.39854 25.1051 2.18003
1 26.8394 25.1306 4.04898
1 1.50582 22.9248 5.16168
1 1.44681 25.0778 6.96946
2 1.47842 23.0862 7.09405
1 -0.450049 23.1337 7.44103
1 1.46609 23.0622 9.07416
2 27.0974 23.0818 9.46248
1 -0.509713 25.0547 9.87107
1 -0.477087 23.0741 11.4371
2 27.0661 25.0611 11.8449
1 1.46137 25.0381 12.1945
1 -0.498181 25.0086 13.8379
2 1.46026 24.9299 14.157
1 1.49548 22.9998 14.2601
1 1.43223 24.9521 16.043
1 26.7838 23.0449 17.1971
1 1.41757 23.1317 19.0374
2 -0.56978 23.0745 19.1135
1 -0.545292 25.059 19.1731
1 -0.568817 22.8867 21.0346
1 1.63299 25.0985 22.0556
1 -0.487121 25.0697 23.8887
2 1.48569 25.0765 23.9874
1 1.45275 23.1286 24.3525
1 1.47034 25.076 25.9566
2 1.45629 23.1301 26.347
1 -0.497658 23.1597 26.7313
1 1.44662 23.1113 28.3339
2 3.27987 27.0432 -0.237171
1 3.33767 1.44566 0.207472
1 3.37799 27.045 1.74358
2 3.3865 1.44628 2.19213
1 5.35519 1.45482 2.63866
1 3.37569 1.4921 4.17226
2 5.34754 1.54177 4.61147
1 5.28012 -0.326129 5.10112
1 5.33757 1.51077 6.63437
2 5.34058 27.0731 7.02537
1 3.33159 27.0614 7.41007
1 5.16948 27.109 8.94728
2 3.3034 -0.521712 9.44207
1 3.40485 1.45196 9.82746
1 3.43743 -0.53395 11.4183
2 3.48432 1.44371 11.7952
1 5.45282 1.44054 12.2429
1 3.62093 1.46274 13.7423
2 5.48195 1.43981 14.272
1 5.38936 -0.541165 14.6962
1 5.39203 1.43173 16.2454
2 5.37968 -0.534025 16.6736
1 3.56201 27.0121 17.2254
1 5.37306 -0.525115 18.7948
2 3.4124 27.0474 19.1708
1 3.3715 1.42907 19.5291
1 3.42907 27.0492 21.1499
2 3.36091 1.44815 21.504
1 5.28541 1.44859 21.8824
1 3.34355 1.41484 23.4945
2 5.24664 1.39688 23.8984
1 5.31901 -0.547566 24.3165
1 5.30938 1.3927 25.8993
2 5.30498 27.0113 26.2933
1 3.31716 -0.519757 26.7116
1 5.14714 -0.50745 28.2298
2 3.28696 3.39868 -0.223175
1 3.39822 5.35474 0.213301
1 3.38638 3.40438 1.76836
2 3.39523 5.36743 2.19097
1 5.36789 5.40284 2.62921
1 3.39328 5.37219 4.16176
2 5.3502 5.38498 4.6045
1 5.33342 3.43766 4.99255
1 5.2594 5.34583 6.56875
2 5.32774 3.43056 6.97752
1 3.31656 3.40763 7.40763
1 5.17911 3.42321 8.90461
2 3.30521 3.41258 9.42663
1 3.41707 5.38309 9.83036
1 3.45512 3.42115 11.4067
2 3.45382 5.37943 11.8013
1 5.45316 5.40111 12.2488
1 3.61891 5.36168 13.7369
2 5.47971 5.38701 14.2812
1 5.43271 3.41742 14.7066
1 5.37795 5.38643 16.2621
2 5.38402 3.40093 16.6772
1 3.42275 3.43163 17.0934
1 5.33161 3.29322 18.6303
2 3.41575 3.39124 19.0927
1 3.38557 5.36703 19.4889
1 3.37201 3.40135 21.0728
2 3.36121 5.35224 21.4831
1 5.23337 5.328 21.9215
1 3.34587 5.35069 23.5291
2 5.25881 5.3321 23.8727
1 5.27931 3.32252 24.2818
1 5.32959 5.1661 25.801
2 5.32061 3.294 26.2848
1 3.30395 3.3742 26.7215
1 5.15256 3.36029 28.219
2 3.37738 7.31502 28.8028
1 3.41291 9.28276 0.196565
1 3.37006 7.32481 1.79052
2 3.40673 9.2874 2.18347
1 5.37112 9.28865 2.61613
1 3.41749 9.25091 4.17496
2 5.36583 9.24843 4.59488
1 5.43159 7.32157 5.03872
1 5.27249 9.28371 6.57259
2 5.5551 7.32414 7.04892
1 3.37544 7.30681 7.47662
1 5.36109 7.37217 9.02739
2 3.41153 7.34797 9.43814
1 3.41333 9.31464 9.88429
1 3.43721 7.33924 11.4244
2 3.43353 9.30612 11.8672
1 5.38038 9.32275 12.2984
1 3.42923 9.31708 13.862
2 5.38982 9.31884 14.271
1 5.39272 7.35128 14.697
1 5.43025 9.30843 16.2383
2 5.38218 7.35947 16.6729
1 3.40323 7.34475 17.084
1 5.33629 7.43777 18.6211
2 3.40184 7.32805 19.0719
1 3.40427 9.24964 19.4828
1 3.39233 7.3034 21.0692
2 3.40783 9.19543 21.5052
1 5.38795 9.29485 21.8952
1 3.40779 9.24817 23.4814
2 5.38111 9.30506 23.8584
1 5.35375 7.32559 23.9753
1 5.38939 9.43835 25.7987
1 3.2251 7.30752 26.8685
1 5.37003 7.35879 28.7108
2 3.42871 11.262 -0.22394
1 3.45156 13.2325 0.21236
1 3.42442 11.2416 1.75247
2 3.45383 13.2125 2.17674
1 5.41177 13.1555 2.5691
1 3.46655 13.1485 4.15999
2 5.41467 13.0636 4.54491
1 5.41693 11.16 4.96554
1 5.41247 12.9779 6.50459
2 5.47294 11.1405 7.05169
1 3.5974 11.26 7.5895
1 5.45923 11.2491 9.07624
2 3.43165 11.2758 9.51117
1 3.41317 13.2409 9.89109
1 3.45049 11.2801 11.4733
2 3.41036 13.2492 11.8676
1 5.37971 13.2537 12.2891
1 3.41269 13.2635 13.8392
2 5.37528 13.2485 14.2692
1 5.39839 11.2855 14.6886
1 5.40695 13.2364 16.2511
2 5.4971 11.269 16.6735
1 3.63375 11.1903 17.1511
1 5.45798 11.2478 18.7121
2 3.44928 11.2091 19.0841
1 3.43063 13.1594 19.078
1 3.46016 11.0672 21.0285
1 5.64736 13.212 21.9708
1 3.65684 13.2432 23.7997
2 5.53934 13.2463 23.9162
1 5.4236 11.2627 24.2552
1 5.45086 13.0848 25.8515
2 5.39964 11.2562 26.354
1 3.4418 11.221 26.759
1 5.38345 11.2552 28.3333
2 3.41943 15.2097 28.885
1 3.39288 17.194 0.180274
1 3.44241 15.207 1.84366
2 3.38737 17.1976 2.14441
1 5.2418 17.2198 2.31673
1 3.25071 17.2096 4.11747
1 5.39102 14.9444 4.71695
1 5.38497 17.3965 6.9455
1 3.22549 15.2243 7.59604
1 5.38552 15.1936 9.41017
2 3.38757 15.2075 9.51735
1 3.41297 17.1652 9.89291
1 3.37454 15.208 11.4758
2 3.39254 17.174 11.8679
1 5.33839 17.1576 12.2884
1 3.39949 17.1761 13.8486
2 5.34133 17.1711 14.2842
1 5.35978 15.2037 14.6943
1 5.37871 17.1735 16.2611
2 5.37902 15.2047 16.6688
1 3.41135 15.2022 17.0241
1 5.39371 15.1833 18.651
2 3.41253 15.0927 18.9752
1 3.40948 16.9864 19.1032
1 3.41962 15.1222 20.8566
1 5.57669 17.2299 21.9961
1 3.42268 17.2388 23.8648
2 5.40069 17.2261 23.931
1 5.4307 15.2444 23.9853
1 5.41553 17.403 25.8601
1 3.41644 15.2194 27.0153
1 5.42045 15.2025 28.7653
2 3.40425 19.171 28.7467
1 3.41944 21.134 0.193111
1 3.43633 19.1779 1.74615
2 3.51472 21.1332 2.18345
1 5.41925 21.1398 2.61257
1 3.5101 21.1621 4.21699
2 5.42413 21.163 4.60699
1 5.42229 19.3541 5.15601
1 5.38916 21.1711 6.72779
2 5.39901 19.2781 7.11822
1 3.457 19.1651 7.51102
1 5.3926 19.1494 9.08892
2 3.44239 19.1439 9.48754
1 3.43186 21.1105 9.87788
1 3.43937 19.1336 11.4497
2 3.43311 21.111 11.8455
1 5.34468 21.1175 12.2898
1 3.43628 21.0767 13.851
2 5.35385 21.1051 14.2899
1 5.38121 19.1346 14.6741
1 5.37089 21.1063 16.2642
2 5.40026 19.1403 16.6387
1 3.41121 19.1267 16.7311
1 5.57704 19.1535 18.5728
1 3.414 21.3741 19.6249
1 3.39521 19.4062 21.405
2 3.39617 21.2899 21.5763
1 5.35281 21.1693 21.9486
1 3.3962 21.2223 23.5442
2 5.34533 21.1716 23.9408
1 5.35747 19.2374 24.3158
1 5.35275 21.1739 25.9304
2 5.36868 19.2777 26.3422
1 3.41217 19.2284 26.7672
1 5.37043 19.1776 28.3304
2 3.40349 23.096 28.7431
1 3.36773 25.0705 0.11277
1 3.41044 23.0945 1.73844
2 3.37978 25.0697 2.05756
1 5.35646 25.0533 2.18845
1 3.38019 25.0621 3.93206
1 5.38156 22.9797 5.15795
1 5.34498 25.0937 6.99392
2 5.37669 23.1134 7.10567
1 3.4119 23.1096 7.48225
1 5.35276 23.0472 9.05785
2 3.41508 23.078 9.46222
1 3.39441 25.0604 9.86723
1 3.43197 23.0871 11.4294
2 3.42205 25.0508 11.8446
1 5.36771 25.0319 12.3043
1 3.42104 25.0329 13.8337
2 5.36661 25.042 14.2813
1 5.35113 23.0779 14.7036
1 5.38126 25.0617 16.2554
2 5.435 23.0861 16.6743
1 3.58193 23.1231 17.2051
1 5.40683 23.1302 18.722
2 3.41343 23.2241 19.1429
1 3.42682 25.1114 19.547
1 3.44577 23.2037 21.1762
2 3.51018 25.1163 21.5521
1 5.40953 25.0812 21.9605
1 3.46494 25.0706 23.5759
2 5.38642 25.0567 23.9516
1 5.37657 23.1131 24.3625
1 5.35524 25.0604 25.9342
2 5.36393 23.1098 26.3498
1 3.4071 23.1003 26.7673
1 5.36472 23.0896 28.3319
1 7.32075 1.44224 0.462034
1 7.32668 -0.550815 2.21926
2 7.33356 1.44566 2.33193
1 9.30856 1.47029 2.63872
1 7.33453 1.45351 4.26849
2 9.32684 1.44275 4.60357
1 9.35997 27.045 4.97873
1 9.34928 1.44036 6.57746
2 9.3377 27.0406 6.95836
1 7.33721 -0.495606 7.08063
1 9.51575 -0.459471 8.89573
1 7.3707 1.4498 10.0939
1 7.34625 -0.562588 11.8596
2 7.38065 1.44435 11.9647
1 9.32908 1.48553 12.2565
1 7.38901 1.44615 13.92
2 9.33558 1.47337 14.2257
1 9.32174 -0.531769 14.3422
1 9.32972 1.65395 16.1475
1 7.19421 -0.539312 17.2338
1 9.2762 27.0882 19.1139
2 7.31637 27.0438 19.1777
1 7.29357 1.44398 19.5181
1 7.29419 -0.511201 21.1408
2 7.29756 1.45629 21.4684
1 9.2979 1.49711 21.5931
1 7.12624 1.42812 23.3973
1 9.30451 26.8393 24.4582
1 9.27708 1.41373 26.3586
2 9.22962 -0.561388 26.3948
1 7.28605 -0.551995 26.4197
1 9.44664 -0.563794 28.3457
1 7.36125 5.57266 0.332905
1 7.32582 3.44514 2.20833
2 7.33902 5.4174 2.26732
1 9.29928 5.40109 2.62521
1 7.34175 5.4038 4.23295
2 9.31092 5.37982 4.6069
1 9.34649 3.397 4.98624
1 9.42844 5.32601 6.55573
2 9.36372 3.39558 6.95903
1 7.35234 3.4023 7.06467
1 9.52322 3.40502 8.89292
1 7.36776 5.58421 10.0259
1 7.37613 3.45033 11.8716
2 7.38138 5.43485 11.9308
1 9.33326 5.41817 12.2809
1 7.38377 5.44935 13.8963
2 9.33727 5.4281 14.2674
1 9.33048 3.50284 14.6514
1 9.33122 5.4265 16.2629
2 9.3161 3.5181 16.6768
1 7.34262 3.49436 17.1235
1 9.36619 3.31952 18.6244
2 7.31674 3.57323 19.1101
1 8.03464 5.3725 19.479
1 7.32671 3.39824 21.0864
2 7.3216 5.36467 21.3628
1 9.36352 5.36815 21.7097
1 7.13074 5.32257 23.3488
1 9.39975 3.40219 24.5643
1 9.33806 5.4026 26.3496
2 9.31495 3.40207 26.4344
1 7.3197 3.37242 26.4096
1 9.50962 3.41729 28.3441
2 7.3705 7.44078 28.8301
1 7.34822 9.33472 0.212522
1 7.3679 7.40932 1.86246
2 7.34354 9.32508 2.21964
1 9.30718 9.32854 2.61993
1 7.35268 9.30456 4.19686
2 9.30969 9.31135 4.6081
1 9.2478 7.34621 5.06356
1 9.43343 9.35634 6.56012
2 9.14289 7.34236 7.05001
1 7.3584 8.11579 7.48274
1 9.3393 7.36229 9.02715
2 7.35224 7.43752 9.3164
1 7.36854 9.34436 9.93516
1 7.36105 7.42152 11.5449
2 7.35049 9.3395 11.8907
1 9.32204 9.32833 12.2962
1 7.35108 9.33421 13.861
2 9.31644 9.32498 14.2696
1 9.32517 7.37472 14.6909
1 9.30401 9.31946 16.248
2 9.31365 7.37544 16.679
1 7.34669 7.29315 17.1237
1 9.36161 7.44906 18.6303
2 7.32804 7.17116 19.111
1 7.35676 9.30368 19.5361
1 7.34417 7.34112 21.0929
2 7.35157 9.29509 21.5011
1 9.30203 9.31177 21.929
1 7.35292 9.32065 23.4903
2 9.30036 9.41037 23.9332
1 9.32119 7.54661 24.4861
1 9.34444 9.3922 25.9799
2 9.42368 7.38718 26.4218
1 7.54645 7.3958 26.9015
1 9.39094 7.40862 28.4274
2 7.35403 11.2582 28.7531
1 7.37189 13.1728 0.164023
1 7.35811 11.2432 1.78043
2 7.37756 13.1301 2.18987
1 9.34191 13.2144 2.62116
1 7.37583 13.1918 4.17123
2 9.33016 13.2371 4.60943
1 9.31132 11.288 5.02294
1 9.33383 13.2292 6.59999
2 9.3452 11.2784 7.02234
1 7.38838 11.2553 7.45632
1 9.32992 11.258 9.01933
2 7.38522 11.2789 9.4669
1 7.37768 13.2408 9.88422
1 7.35632 11.2987 11.4681
2 7.34589 13.2468 11.871
1 9.3126 13.218 12.2877
1 7.34119 13.2478 13.85
2 9.30448 13.2402 14.267
1 9.31246 11.2811 14.6898
1 9.2864 13.2384 16.2472
2 9.3049 11.278 16.681
1 7.38312 11.2748 17.1075
1 9.30809 11.2645 18.6895
2 7.37534 11.2599 19.1104
1 7.3832 13.2351 19.5193
1 7.41061 11.2633 21.085
2 7.49512 13.2358 21.4919
1 9.36953 13.2339 21.9397
1 7.46127 13.26 23.5445
2 9.36718 13.2595 23.953
1 9.32745 11.3083 24.3663
1 9.36243 13.2495 25.9421
2 9.32674 11.3109 26.3679
1 7.35953 11.2657 26.7749
1 9.3249 11.2788 28.3487
2 7.38583 15.1866 -0.20635
1 7.35763 17.1771 -0.172574
1 7.43163 15.0004 1.7194
1 9.57691 17.1642 2.71233
1 7.6131 17.1716 4.5099
2 9.49191 17.1752 4.67042
1 9.37329 15.1956 5.05082
1 9.38644 17.1779 6.63732
2 9.41666 15.1982 7.03242
1 7.55344 15.2116 7.56176
1 9.38335 15.1768 9.06908
2 7.37916 15.2004 9.4983
1 7.34963 17.1641 9.88025
1 7.35839 15.2026 11.4719
2 7.23805 17.1632 11.8713
1 9.10715 17.1818 12.3907
1 7.26413 17.1622 13.9007
2 9.27147 17.1644 14.3162
1 9.28199 15.203 14.6824
1 9.26135 17.1575 16.2785
2 9.26832 15.1998 16.6628
1 7.32826 15.2069 17.0877
1 9.26569 15.1762 18.6561
2 7.33692 15.2021 19.0878
1 7.36934 17.1752 19.5233
1 7.3958 15.2092 21.0716
2 7.43421 17.1809 21.5083
1 9.30808 17.1426 21.9588
1 7.39145 17.2015 23.564
2 9.30189 17.1797 23.971
1 9.34886 15.2113 24.3779
1 9.30295 17.1749 25.9445
2 9.41892 15.2093 26.3571
1 7.55163 15.1521 26.8437
1 9.38106 15.1986 28.3889
2 7.32747 19.1644 -0.26897
1 7.33845 21.1473 0.156659
1 7.3616 19.3269 1.67177
2 7.37115 21.1834 2.20236
1 9.32963 21.1013 2.62283
1 7.37086 21.1402 4.19028
2 9.33427 21.1221 4.60564
1 9.35918 19.1415 5.03256
1 9.30307 21.0919 6.5479
2 9.32274 19.1571 7.02507
1 7.36509 19.1701 7.48022
1 9.32608 19.132 9.0151
2 7.34684 19.1288 9.46492
1 7.24714 21.0521 9.91531
1 7.29664 19.1112 11.4562
2 7.23031 21.0807 11.8788
1 9.10545 21.0295 12.3753
1 7.26397 21.0858 13.9016
2 9.27079 21.0642 14.3009
1 9.28677 19.1165 14.685
1 9.2795 21.0626 16.2777
2 9.3173 19.1105 16.6644
1 7.39308 19.1388 17.0551
1 9.32869 19.0998 18.6549
2 7.43891 19.1452 19.0964
1 7.34157 21.1193 19.5364
1 7.36542 19.1536 21.081
2 7.24621 21.1241 21.5209
1 9.10482 21.1121 22.0574
1 7.2691 21.1318 23.5614
2 9.24635 21.1022 23.9978
1 9.26524 19.1484 24.3692
1 9.23696 21.1077 25.9699
2 9.26836 19.149 26.3412
1 7.32257 19.2112 26.7359
1 9.27027 19.1306 28.331
2 7.33798 23.0217 28.7448
1 7.3789 24.8818 0.261782
1 7.34951 23.0627 1.81012
2 7.28751 25.043 2.21373
1 9.20132 25.0243 2.66728
1 7.46734 24.9993 4.1816
2 9.38938 25.0453 4.61967
1 9.33833 23.083 5.04517
1 9.29508 25.1045 6.55791
2 9.29879 23.1021 7.13083
1 7.32362 23.0973 7.45726
1 9.31009 23.8484 8.97234
2 7.51683 22.998 9.44014
1 7.16632 24.8835 10.0207
1 7.38928 23.0098 11.4799
2 7.30655 25.0156 11.9279
1 9.2642 25.0494 12.2526
1 7.32353 24.9988 13.8934
2 9.27447 25.0205 14.2297
1 9.25891 22.9927 14.6212
1 9.29348 24.846 16.1535
2 9.28273 22.9715 16.6353
1 7.30684 23.0583 17.0668
1 9.12666 23.0748 18.5825
2 7.27755 23.0951 19.1245
1 7.34058 25.068 19.5569
1 7.3222 23.0929 21.102
2 7.32839 25.0724 21.5385
1 9.24921 25.0946 21.9771
1 7.32735 25.0325 23.548
2 9.27182 24.9603 23.9729
1 9.26796 23.0516 24.3763
1 9.28204 24.9851 25.9914
2 9.28993 23.049 26.3653
1 7.32384 23.0854 26.7734
1 9.30987 23.0558 28.3382
2 11.3628 27.04 -0.237434
1 11.3405 1.50334 0.168227
1 11.2505 -0.325354 1.69893
2 11.2826 1.54359 2.19539
1 13.2565 1.46023 2.61955
1 11.2973 1.45706 4.17508
2 13.2535 1.44051 4.59726
1 13.2628 27.0332 5.0121
1 13.2684 1.44677 6.56763
2 13.2573 -0.521847 6.9801
1 11.3419 -0.520328 7.3651
1 13.2598 27.1047 8.97731
2 11.3798 27.1006 9.42109
1 11.3356 1.47466 9.86018
1 11.2598 27.096 11.4456
2 11.2812 1.4841 11.8486
1 13.2347 1.51227 12.245
1 11.2786 1.47688 13.8369
2 13.2264 1.47459 14.2183
1 13.2029 27.038 14.3249
1 13.2092 1.65444 16.146
1 11.2694 -0.479288 17.3536
1 13.2841 27.085 19.0947
2 11.2851 -0.394513 19.2272
1 11.3374 1.50682 19.5131
1 11.2657 27.1511 21.2176
2 11.3068 1.51938 21.4855
1 13.3371 1.52517 21.8664
1 11.4868 1.5131 23.4047
2 13.354 1.46271 23.873
1 13.2597 -0.527248 23.9918
1 13.289 1.6285 25.8074
1 11.1567 27.0516 26.7843
1 13.2981 27.0458 28.7093
2 11.4006 3.43585 -0.223778
1 11.3122 5.39286 0.200475
1 11.2858 3.44083 1.76941
2 11.248 5.39513 2.1778
1 13.1725 5.38012 2.57471
1 11.2463 5.38984 4.17045
2 13.1376 5.37926 4.60856
1 13.239 3.41322 5.01719
1 13.2503 5.37761 6.59081
2 13.2825 3.40404 6.99828
1 11.3681 3.38296 7.39185
1 13.2807 3.44218 8.99837
2 11.3878 3.42415 9.42963
1 11.3035 5.38516 9.85922
1 11.2848 3.43631 11.4219
2 11.2768 5.3927 11.8459
1 13.2206 5.40414 12.2503
1 11.2838 5.42125 13.8376
2 13.2262 5.41644 14.243
1 13.229 3.49084 14.63
1 13.2455 5.42278 16.2394
2 13.238 3.52496 16.6592
1 11.2942 3.48322 17.0841
1 13.2492 3.45764 18.6505
2 11.2988 3.4362 19.0775
1 11.3062 5.39165 19.4784
1 11.2978 3.45176 21.077
2 11.3171 5.39355 21.4625
1 13.3099 5.40193 21.8723
1 11.4943 5.40771 23.3983
2 13.3436 5.40167 23.9125
1 13.3203 3.46268 24.2895
1 13.1763 5.3715 25.873
2 13.2787 3.49364 26.3267
1 11.3422 3.40713 26.7502
1 13.2992 3.43199 28.3242
2 11.3199 7.36243 28.7787
1 11.2929 9.33211 0.205544
1 11.2563 7.35498 1.77589
2 11.2454 9.31866 2.17936
1 13.165 9.31082 2.57443
1 11.2417 9.30646 4.17336
2 13.1334 9.3078 4.61331
1 13.1856 7.34558 5.04531
1 13.2358 9.31108 6.60146
2 13.2378 7.34224 7.02812
1 11.2979 7.33587 7.46587
1 13.2398 7.3504 9.0161
2 11.2807 7.34452 9.43616
1 11.2896 9.29989 9.85884
1 11.2758 7.35146 11.4268
2 11.2767 9.29623 11.8564
1 13.2336 9.30816 12.2801
1 11.2789 9.31375 13.8474
2 13.2319 9.31564 14.2673
1 13.241 7.36436 14.6765
1 13.2133 9.30905 16.2528
2 13.2417 7.35709 16.6707
1 11.2904 7.35445 17.0846
1 13.2314 7.34739 18.657
2 11.2856 7.35987 19.0792
1 11.2645 9.31076 19.5196
1 11.2628 7.33869 21.0654
2 11.2409 9.30069 21.4944
1 13.1571 9.2673 21.8982
1 11.2358 9.32775 23.4912
2 13.1297 9.32291 23.924
1 13.3099 7.36418 24.3683
1 13.1245 9.37457 25.8817
2 13.4186 7.35575 26.3733
1 11.3223 7.37124 26.7975
1 13.2422 7.3463 28.3678
2 11.285 11.2842 28.7642
1 11.2919 13.2335 0.216671
1 11.268 11.2809 1.77033
2 11.2898 13.233 2.20094
1 13.2373 13.2143 2.63219
1 11.2862 13.2398 4.1904
2 13.2397 13.2376 4.61478
1 13.2167 11.2701 5.03915
1 13.25 13.2288 6.59338
2 13.2491 11.277 7.0264
1 11.2968 11.2843 7.44982
1 13.2514 11.2502 9.01366
2 11.2908 11.2401 9.43019
1 11.2938 13.1569 9.82673
1 11.279 11.2352 11.4327
2 11.2773 13.1331 11.8577
1 13.2423 13.2078 12.2832
1 11.2707 13.2235 13.842
2 13.2344 13.2413 14.2626
1 13.2225 11.276 14.6912
1 13.2046 13.2412 16.2427
2 13.1259 11.2734 16.6763
1 11.2316 11.278 17.1002
1 13.1532 11.2447 18.7126
2 11.2401 11.2628 19.1099
1 11.2403 13.2161 19.515
1 11.2538 11.2651 21.0958
2 11.2945 13.2103 21.5184
1 13.2318 13.1915 21.9574
1 11.2941 13.2517 23.5261
2 13.243 13.2457 23.9431
1 13.2236 11.2976 24.3453
1 13.2442 13.2425 25.9284
2 13.2322 11.2958 26.3433
1 11.28 11.3254 26.7863
1 13.2413 11.2795 28.3283
2 11.3038 15.1941 -0.198556
1 11.2932 17.1584 0.201784
1 11.3344 15.1945 1.78085
2 11.417 17.1584 2.1825
1 13.2969 17.1607 2.62077
1 11.3963 17.1767 4.24298
2 13.2953 17.1735 4.62952
1 13.2535 15.1951 5.03377
1 13.2483 17.1771 6.5961
2 13.2346 15.2019 7.00837
1 11.3113 15.1522 7.40991
1 13.2267 15.1779 9.01943
2 11.2998 15.1575 9.40107
1 11.2959 17.1344 9.43872
1 11.2961 15.0011 11.3381
1 13.4503 17.1795 12.3838
1 11.2696 17.1804 14.2073
2 13.2724 17.1686 14.3117
1 13.2179 15.207 14.657
1 13.2637 17.1568 16.2783
2 13.2139 15.2007 16.6263
1 11.195 15.1887 17.0395
1 13.038 15.1553 18.552
2 11.1665 15.1453 19.0726
1 11.243 17.0542 19.4623
1 11.2571 15.1494 21.0912
2 11.1931 17.038 21.5331
1 13.0528 17.1191 22.0631
1 11.2134 17.1527 23.582
2 13.1957 17.1635 23.9999
1 13.2276 15.2032 24.3745
1 13.1869 17.1672 25.9695
2 13.2367 15.2039 26.3623
1 11.3097 15.2041 26.7834
1 13.2406 15.175 28.3672
2 11.1738 19.1119 -0.236424
1 11.2476 21.0391 0.156277
1 11.304 19.1122 1.76165
2 11.2849 21.0129 2.18692
1 13.2358 21.1085 2.61621
1 11.2896 21.1035 4.17859
2 13.233 21.1228 4.61298
1 13.2729 19.1543 5.034
1 13.2294 21.114 6.59017
2 13.2459 19.1454 7.00596
1 11.2844 19.1641 7.37295
1 13.2606 19.0843 8.98162
2 11.3026 19.1199 9.3199
1 11.455 21.0835 9.48014
1 11.2655 19.1062 11.1946
1 13.4411 21.034 12.3781
1 11.2727 21.0603 14.1941
2 13.2739 21.0681 14.3031
1 13.2634 19.1163 14.6856
1 13.2739 21.0648 16.2708
2 13.2548 19.1149 16.6621
1 11.2777 19.0699 17.0539
1 13.245 19.1103 18.6313
2 11.2829 18.9713 19.0292
1 11.2862 20.8554 19.2134
1 11.2652 18.8806 20.9874
1 13.2285 21.1008 22.1907
1 11.2149 21.0926 23.9424
2 13.2135 21.0819 24.0594
1 13.1825 19.1224 24.3548
1 13.2235 21.0682 26.0107
2 13.2065 19.1193 26.3191
1 11.1928 19.1277 26.725
1 13.045 19.1134 28.2412
2 11.2684 23.0528 -0.26514
1 11.3114 25.0438 -0.170431
1 11.2904 22.8799 1.6626
1 13.4525 25.0949 2.72519
1 11.3295 25.0508 4.53628
2 13.3001 25.0582 4.65607
1 13.2504 23.0892 5.03616
1 13.2891 25.0614 6.61376
2 13.2204 23.0876 7.01827
1 11.2825 23.1202 7.39625
1 13.2318 23.0964 8.99579
2 11.1038 23.0779 9.3516
1 11.3926 25.2141 9.86166
1 11.1563 23.2839 11.2768
2 11.1774 25.162 11.8401
1 13.0435 25.0234 12.3546
1 11.2019 25.0422 13.8746
2 13.2096 25.0385 14.2751
1 13.2617 23.0079 14.6209
1 13.1602 24.8564 16.1886
2 13.2607 22.9747 16.6116
1 11.2605 22.9967 16.7373
1 13.4251 23.0845 18.5276
1 11.2511 25.3075 19.6504
1 11.1748 23.3243 21.3904
2 11.1599 25.2125 21.596
1 13.0451 25.0554 22.033
1 11.2059 25.0625 23.597
2 13.2003 25.0453 23.9563
1 13.2137 23.0206 24.3475
1 13.1751 24.8551 25.8782
2 13.2207 22.9782 26.3649
1 11.259 23.0051 26.7525
1 13.2255 23.0839 28.3498
2 15.275 -0.510837 28.8244
1 15.2461 1.4441 0.222234
1 15.2846 27.052 1.82241
2 15.2286 1.44437 2.20756
1 17.1929 1.43942 2.62631
1 15.2172 1.42668 4.18373
2 17.1831 1.345 4.6073
1 17.171 27.0068 5.00708
1 17.1717 1.37834 6.63851
2 17.1602 -0.549708 6.98227
1 15.1708 27.0502 7.35353
1 16.9894 27.0422 8.91219
2 15.1327 27.0714 9.38083
1 15.2005 1.52643 9.80942
1 15.1872 -0.312925 11.3155
2 15.1766 1.56216 11.8434
1 17.0982 1.52379 12.2913
1 15.1692 1.45415 13.8539
2 17.1035 1.44272 14.2948
1 17.1661 27.0291 14.7185
1 17.1501 1.4522 16.2672
2 17.2703 -0.528151 16.6929
1 15.3763 27.1215 17.1395
1 17.1877 26.9543 18.6692
2 15.2425 27.0688 19.0796
1 15.2251 1.52729 19.4501
1 15.3116 -0.309711 21.0062
2 15.2656 1.56018 21.491
1 17.1806 1.48055 21.994
1 15.2457 1.43043 23.5075
2 17.199 1.4132 23.9444
1 17.201 27.0247 24.3744
1 17.2293 1.41214 25.9435
2 17.2994 -0.53505 26.3671
1 15.4334 27.0367 26.8875
1 17.2648 -0.526566 28.4068
2 15.2366 3.40122 28.7651
1 15.1854 5.32766 0.239156
1 15.2114 3.39274 1.79316
2 15.1813 5.37585 2.16322
1 17.1861 5.37952 2.27104
1 15.0054 5.39735 4.08585
1 17.1825 3.21246 5.13777
1 17.1776 5.34216 7.03076
2 17.1808 3.36547 7.0753
1 15.222 3.39891 7.42825
1 17.1717 3.41018 9.04331
2 15.22 3.44883 9.41943
1 15.1926 5.39928 9.84189
1 15.1772 3.46072 11.4144
2 15.1658 5.40172 11.8276
1 17.0867 5.39905 12.2221
1 15.1582 5.38573 13.8232
2 17.0556 5.3556 14.2409
1 17.1022 3.40964 14.6778
1 17.1612 5.35066 16.2353
2 17.1484 3.4121 16.6593
1 15.1844 3.43964 17.0663
1 17.1214 3.52552 18.6222
2 15.1971 3.45776 19.0621
1 15.1876 5.40049 19.4932
1 15.2512 3.45323 21.0601
2 15.2228 5.38735 21.4886
1 17.1404 5.38232 21.9118
1 15.2347 5.35064 23.5028
2 17.1479 5.24621 23.9544
1 17.1335 3.33335 24.3691
1 17.292 5.22351 25.9409
2 17.2096 3.34315 26.3729
1 15.2415 3.3791 26.7672
1 17.1924 3.385 28.3554
2 15.2013 7.33709 28.6625
1 15.1612 9.34759 0.221634
1 15.1731 7.33728 1.75607
2 15.1636 9.29828 2.15304
1 17.1473 9.29167 2.21272
1 15.0008 9.28574 4.08401
1 17.1837 7.33741 5.29147
1 17.1838 9.34387 7.03209
2 17.174 7.33847 7.16106
1 15.2018 7.34739 7.46993
1 17.163 7.35681 9.10023
2 15.1952 7.35579 9.44802
1 15.1939 9.31448 9.86752
1 15.1586 7.35118 11.4242
2 15.1804 9.30328 11.8533
1 17.121 9.25759 12.2589
1 15.1827 9.30747 13.8502
2 17.1282 9.28214 14.241
1 17.1257 7.27725 14.6442
1 17.1497 9.10113 16.1715
2 17.1699 7.23662 16.6834
1 15.201 7.31818 17.1013
1 17.1658 7.32384 18.6649
2 15.1938 7.32489 19.084
1 15.1472 9.24807 19.4898
1 15.2051 7.33007 21.0891
2 15.1721 9.24841 21.4839
1 17.1708 9.2684 21.5667
1 15.003 9.30984 23.4131
1 17.0708 7.12671 24.5048
1 17.3382 9.37528 26.2481
2 17.0194 7.3433 26.4375
1 15.2015 8.0847 26.8057
1 17.1751 7.31937 28.4061
2 15.1989 11.2699 28.7642
1 15.1847 13.2011 0.221069
1 15.1847 11.2718 1.79803
2 15.1952 13.209 2.21869
1 17.1499 13.2211 2.62054
1 15.1963 13.2371 4.20119
2 17.1482 13.3374 4.61421
1 17.1806 11.4717 5.15778
1 17.1536 13.3159 6.65552
2 17.1708 11.3223 7.09549
1 15.2075 11.2975 7.46256
1 17.1638 11.3026 9.06642
2 15.2017 11.2744 9.44951
1 15.1771 13.2362 9.87263
1 15.1927 11.2675 11.4318
2 15.2017 13.2309 11.8554
1 17.1527 13.2184 12.2583
1 15.201 13.2617 13.8414
2 17.1763 13.2623 14.2169
1 17.138 11.2744 14.3274
1 17.1853 13.4299 16.1395
1 14.9879 11.2489 17.1973
1 17.1314 11.2092 19.0248
2 15.1468 11.1398 19.1323
1 15.169 12.9857 19.6266
1 15.1559 11.1574 21.167
2 15.1996 13.0706 21.5815
1 17.1825 13.183 21.959
1 15.2044 13.227 23.5477
2 17.1763 13.3415 23.9425
1 17.1691 11.4872 24.4685
1 17.1637 13.3149 25.9874
2 17.1911 11.3305 26.3992
1 15.2109 11.3015 26.7725
1 17.1705 11.3075 28.3617
2 15.1799 15.1049 28.7927
1 15.1886 16.9805 0.321549
1 15.1982 15.1323 1.83604
2 15.2184 17.1519 2.24797
1 17.1439 17.1856 2.60946
1 15.2146 17.1563 4.23117
2 17.1467 17.1878 4.61316
1 17.1243 15.2372 5.0124
1 17.1497 17.1857 6.60015
2 17.1363 15.2426 6.99187
1 15.1401 15.2244 7.40461
1 16.9728 15.2217 8.92261
2 15.1142 15.1975 9.44667
1 15.2019 17.151 9.86366
1 15.2138 15.1992 11.4353
2 15.322 17.1578 11.8584
1 17.2112 17.1777 12.3002
1 15.2853 17.1862 13.8949
2 17.2205 17.2105 14.2712
1 17.223 15.2687 14.618
1 17.2011 17.203 16.2551
2 17.2086 15.2998 16.6185
1 15.207 15.2163 16.7192
1 17.3771 15.1859 18.545
1 15.2308 17.3492 19.1062
1 15.2174 14.951 21.396
1 17.1838 17.1993 22.2048
1 15.1716 17.1901 23.9383
2 17.1827 17.1928 24.0752
1 17.1613 15.2382 24.3871
1 17.1633 17.1876 26.0253
2 17.0741 15.2355 26.3887
1 15.1668 15.2065 26.7915
1 17.1027 15.1908 28.4067
1 15.1654 21.3178 0.310428
1 15.1972 19.1482 2.14266
2 15.1751 21.1445 2.23427
1 17.0944 21.1286 2.57232
1 15.1709 21.1573 4.2131
2 17.067 21.1207 4.60882
1 17.1416 19.1474 5.02739
1 17.1148 21.0974 6.58606
2 17.1424 19.1408 7.01238
1 15.1984 19.1316 7.42113