1769
Atoms. Timestep: 1320
2 -0.140491 26.6094 -0.249355
1 26.6335 1.75708 -0.0068905
1 0.711798 -0.104452 1.63636
2 26.6309 1.75726 1.89866
1 1.70112 1.73826 2.79191
2 2.04294 1.76359 4.56363
1 1.69068 0.0925944 5.25619
2 1.72907 26.3871 7.09723
1 -0.110941 -0.085111 7.45413
1 1.7862 -0.136201 9.00238
2 -0.138816 26.6528 9.4397
1 26.6174 1.77669 9.83885
1 -0.169904 -0.131482 11.403
2 26.6277 1.77833 11.8039
1 1.82538 1.78859 12.1547
1 -0.167886 1.72595 13.768
2 1.69644 1.74414 14.0571
1 1.77824 0.0130089 14.8763
2 1.76055 26.4021 16.7493
1 -0.0996193 -0.0977272 17.0679
1 1.75569 -0.159872 18.6344
2 -0.106457 26.6443 19.1111
1 -0.11206 1.74709 19.5417
1 -0.189278 -0.146438 21.1342
2 26.408 1.74902 21.4271
1 -0.0599828 1.76478 23.3075
2 1.73988 1.76306 24.1941
1 1.7259 26.6505 24.3592
1 2.48072 1.7722 25.9545
2 1.74914 -0.0482984 26.3433
1 26.5861 26.5168 26.7658
1 1.78121 -0.11526 28.2781
2 -0.109621 3.73033 -0.232698
1 -0.124677 5.85351 0.376863
1 0.75881 3.65722 1.67869
2 -0.133697 5.26463 2.23391
1 1.70937 5.80235 2.62872
1 -0.1369 5.46855 4.19021
2 1.71428 5.55761 4.64236
1 1.65938 3.42231 5.26972
1 1.79422 5.67792 6.62433
2 1.72797 3.91829 7.11342
1 -0.122661 3.6097 7.46381
1 1.78563 3.66111 9.01732
2 26.6266 3.66835 9.43792
1 26.6535 5.57085 9.85006
1 26.5935 3.70309 11.4385
2 0.0934978 5.57116 11.7633
1 1.85782 5.52188 12.255
1 26.4406 5.54984 13.6156
2 1.94689 5.57639 14.2364
1 1.67916 3.42295 14.9437
1 1.78446 5.67348 16.1824
2 1.76626 3.93174 16.7751
1 -0.0891838 3.61755 17.0965
1 1.77666 3.68683 18.6767
2 -0.098519 3.65919 19.1107
1 26.6423 5.5614 19.5417
1 -0.0917717 3.62184 21.1153
2 -0.145951 5.55045 21.5204
1 1.7551 5.58359 21.9525
1 26.5951 5.50016 23.5174
2 1.73753 5.56665 23.9368
1 1.74968 3.68013 24.3512
1 1.75558 5.57266 25.9246
2 1.74845 3.57765 26.3426
1 26.5993 3.85227 26.8249
1 1.77126 3.70248 28.2875
2 -0.147131 7.5427 28.5675
1 26.6462 9.24116 0.402271
2 -0.150539 9.66702 2.26325
1 1.71874 9.3501 2.59593
1 -0.0975511 9.47733 4.18284
2 1.76317 9.17015 4.51815
1 1.7771 7.43113 5.06531
1 1.79395 9.58188 6.41096
2 1.75571 7.57288 7.02075
1 26.6398 7.55414 7.42374
1 1.67775 7.47629 8.97506
2 26.5985 7.48294 9.43547
1 -0.0571467 9.35995 9.90213
1 26.5869 7.43421 11.4553
2 -0.160698 9.39248 11.8563
1 1.74706 9.39235 12.2695
1 26.6207 9.44868 13.8414
2 1.74163 9.40872 14.2418
1 1.60507 7.52036 14.6494
1 1.82283 9.43034 16.1914
2 1.7474 7.54778 16.6649
1 26.6353 7.54406 17.1097
1 1.72082 7.36205 18.6401
2 26.6399 7.47879 19.1228
1 26.5627 9.37843 19.5597
1 -0.143967 7.47654 21.13
2 26.6359 9.41359 21.5223
1 1.72324 9.41036 22.0207
1 26.6134 9.42671 23.5114
2 1.72895 9.37111 23.9634
1 1.75694 7.46625 24.338
1 1.6257 9.3382 25.924
2 1.7649 7.46614 26.3315
1 26.6285 7.44111 26.6945
1 1.76236 7.51965 28.3141
2 26.644 11.3122 -0.198042
1 -0.142044 13.2662 0.162073
1 26.6433 11.4309 1.75436
2 -0.152437 13.3057 2.15738
1 1.75376 13.2636 2.62655
1 -0.144797 13.2408 4.1844
2 1.75485 13.5106 4.5188
1 1.76809 13.0526 6.37468
2 1.7691 11.3323 7.22155
1 -0.128481 11.3453 7.429
1 1.75477 11.3037 9.09502
2 26.5145 11.3285 9.43303
1 -0.0387126 13.2734 9.90367
1 26.586 11.3199 11.4262
2 -0.135311 13.234 11.8574
1 1.77351 13.2758 12.2792
1 -0.10134 13.1533 13.8245
2 1.78194 13.2156 14.245
1 1.7507 11.2968 14.662
1 1.83447 13.1435 16.1573
2 1.48929 11.3141 16.6324
1 26.4974 11.3666 17.0551
1 1.7877 12.188 18.5376
2 -0.0892795 11.3399 19.0433
1 26.5443 13.2775 19.5555
1 -0.0651432 11.3354 21.0727
2 26.6346 13.2654 21.5091
1 1.75848 13.2395 21.9281
1 -0.117674 13.3295 23.4682
2 1.74317 13.01 23.8934
1 1.80695 11.2384 24.4125
1 2.34472 13.7493 25.4649
2 1.86454 11.3996 26.3796
1 26.6248 11.1997 26.8665
1 1.72884 11.337 28.3849
2 26.6155 15.1665 -0.220654
1 -0.130572 17.0653 0.174356
1 26.5829 15.2017 1.7715
2 0.116323 17.0518 2.09299
1 1.86147 17.0663 2.68254
1 26.2891 17.0036 3.90356
2 1.81472 17.1001 4.61039
1 1.70977 15.2626 5.04196
1 1.71793 17.0766 6.56997
2 1.75459 15.163 7.01185
1 -0.146511 15.1237 7.47353
1 1.77151 15.1432 9.00398
2 -0.127937 15.1571 9.48091
1 26.5472 17.0381 9.89871
1 -0.103219 15.181 11.4941
2 26.6002 17.1021 11.8306
1 1.94532 17.0708 12.3513
1 26.5509 17.2364 13.7571
2 1.51039 17.0628 14.1338
1 1.78733 15.4279 14.934
2 1.78353 14.8739 16.7939
1 -0.0676762 15.1943 17.146
1 1.79228 15.1773 18.7271
2 26.6448 15.1647 19.1089
1 -0.146896 17.0469 19.4822
1 -0.138242 15.187 21.0983
2 -0.12779 17.1561 21.4878
1 1.83144 16.9626 22.011
1 -0.114339 17.0424 23.5146
2 1.76004 17.3141 23.8785
1 1.75733 16.85 25.7175
2 1.74357 15.0975 26.5512
1 26.6298 15.2897 26.8403
1 1.75625 15.1228 28.4488
2 -0.125646 18.9949 28.777
1 26.6349 20.9007 0.220338
1 -0.0839898 18.9055 1.73195
2 26.5652 20.8528 2.22486
1 1.71113 20.7673 2.63054
1 -0.120139 20.8884 4.2602
2 1.77852 20.8558 4.5679
1 1.74188 18.9496 4.99587
1 1.76636 20.9056 6.5075
2 1.70745 18.9936 7.12392
1 26.6034 18.9562 7.41231
1 1.71701 19.7809 8.96307
2 -0.0496631 19.0064 9.41541
1 26.5177 20.9735 9.92662
1 -0.119932 18.994 11.4122
2 26.6333 20.8857 11.8804
1 1.78497 20.9085 12.2187
1 -0.0120615 20.7348 13.8186
2 1.82627 20.9067 14.2541
1 1.85912 18.7075 14.8922
1 1.73208 20.9913 16.2001
2 1.73162 19.2242 16.7137
1 -0.113122 18.9008 17.0428
1 1.74758 19.0129 18.5994
2 -0.144107 18.9692 19.1998
1 26.6307 20.9056 19.5021
1 0.666906 18.9531 21.0655
2 -0.174299 20.7438 21.4839
1 1.73466 21.0364 21.9035
1 26.6289 20.8864 23.4841
2 1.7955 20.9404 23.9114
1 1.6385 19.0647 24.432
1 1.80362 20.9246 25.9673
2 1.75059 18.9814 26.3559
1 -0.127776 18.955 26.778
1 1.77043 18.9671 28.3385
2 -0.154888 22.7949 28.7636
1 -0.139283 24.6873 0.113579
1 -0.0577865 22.8727 1.72729
2 26.6179 24.8516 2.15043
1 1.66874 24.7575 2.73994
1 -0.162923 24.8046 4.27171
2 1.7648 24.7578 4.61345
1 1.8003 22.8148 4.90789
1 1.79658 24.642 6.52483
2 1.75925 22.7669 6.803
1 0.0535443 22.8111 7.67908
2 26.3793 22.8343 9.54345
1 -0.0696155 24.6978 9.84002
1 -0.151788 22.8295 11.4637
2 26.6369 24.7739 11.852
1 1.69672 24.8458 12.3175
1 -0.135257 24.8787 13.844
2 1.75176 24.7975 14.2695
1 1.8426 22.8568 14.5728
1 1.76779 24.6514 16.1978
2 1.75585 22.8249 16.6864
1 -0.139861 22.8215 17.1696
1 1.76964 22.7764 18.7198
2 26.6317 22.8093 19.1269
1 26.6499 24.7297 19.5626
1 26.5399 22.8102 21.1099
2 26.6361 24.7227 21.5354
1 1.75195 24.6292 21.9106
1 -0.0705638 24.7521 23.4761
2 1.78983 24.7457 23.9312
1 1.64579 22.8565 24.4103
1 1.76312 24.7493 25.9307
2 1.76269 22.8359 26.369
1 26.6394 22.8128 26.7371
1 1.72573 22.7843 28.3161
2 3.79043 26.6388 28.7533
1 3.5339 1.78312 0.270025
1 3.81235 26.5715 1.78856
2 3.67151 1.74267 2.1973
1 5.61299 1.74712 2.57378
1 3.81093 1.77587 4.16814
2 5.65298 1.72817 4.61206
1 5.60442 26.5988 5.05269
1 5.59878 1.76071 6.59062
2 5.57097 -0.135727 7.02542
1 3.60759 -0.0398329 7.35387
1 5.54486 -0.128737 9.00464
2 3.67054 -0.0946198 9.24395
1 3.73498 1.76993 10.1301
2 3.7439 1.81224 11.9854
1 5.64969 1.75638 12.4243
1 3.57552 1.72071 13.8267
2 5.33702 1.7427 14.3645
1 5.64569 -0.119361 14.6911
1 5.54608 1.75265 16.2706
2 5.54717 -0.137739 16.671
1 3.61688 -0.0781268 17.0412
1 5.57433 -0.140476 18.5828
2 3.66176 -0.119234 19.1882
1 3.69807 1.79425 19.4654
1 4.37108 26.6267 21.012
2 3.94191 1.65233 21.4013
1 5.70235 1.83114 22.0162
1 3.48605 1.75551 23.2851
2 5.52332 1.76361 23.9404
1 5.55331 -0.133178 24.3509
2 5.57936 26.6552 26.4665
1 3.6829 26.5031 26.776
1 5.56927 0.612633 28.2809
2 3.65776 3.69205 -0.212401
1 3.68641 5.59917 0.234043
1 3.71305 3.70278 1.81047
2 3.6582 5.60616 2.21317
1 5.7764 5.58437 2.80819
1 3.55935 5.47622 4.16927
2 5.33385 5.54103 4.65849
1 5.72254 3.69413 4.99887
1 5.55505 5.57229 6.56821
2 5.59929 3.65629 6.9934
1 3.61903 3.57206 7.34498
1 5.55111 3.65783 8.98741
2 3.67737 3.6383 9.24105
1 3.69373 5.43178 10.0401
2 3.72128 5.84996 12.032
1 5.58937 5.57117 12.2252
1 3.71288 6.26531 13.9062
2 5.48368 5.54241 14.2456
1 5.75034 3.5701 14.6843
1 5.48874 5.55785 16.2233
2 5.56919 3.65853 16.6793
1 3.63954 3.62194 17.0788
1 5.6116 3.65129 18.6835
2 3.68649 3.67484 19.0932
1 3.66129 5.56639 19.5403
1 3.62266 3.60375 21.1023
2 3.66806 5.54393 21.5321
1 5.57617 5.54179 21.9574
1 3.66696 5.56993 23.5306
2 5.58136 5.58098 23.9448
1 5.56395 3.67105 24.3475
1 5.61573 5.58831 25.9344
2 5.57753 3.68063 26.361
1 3.70859 3.82426 26.8186
1 5.5862 3.66732 28.3825
2 3.66987 7.50315 28.7783
1 3.66773 9.39596 0.242755
1 3.7199 7.48987 1.79744
2 3.66126 9.41094 2.18692
1 5.5694 9.39879 2.61329
1 3.62065 9.4636 4.18142
2 5.57505 9.37283 4.57766
1 5.62217 7.4369 4.93829
1 5.56045 9.36214 6.5815
2 5.59626 7.48031 6.82826
1 3.87325 7.47279 7.6727
2 3.42436 7.45298 9.51892
1 3.73243 9.38553 9.79145
1 3.67524 7.58642 11.3691
2 3.63197 9.45193 11.8523
1 5.49291 9.40372 12.2913
1 3.65273 9.4182 13.8759
2 5.58203 9.41741 14.232
1 5.74183 7.5779 14.7348
1 5.50856 9.52673 16.2617
2 5.56978 7.49765 16.6856
1 3.66172 7.54864 17.1089
1 5.54646 7.42778 18.6636
2 3.65067 7.56792 19.13
1 4.35211 9.81878 19.26
1 3.74947 7.44805 21.1564
2 3.68228 9.38756 21.5615
1 5.57886 9.40906 21.9964
1 3.67051 9.37653 23.5594
2 5.58837 9.41535 23.9575
1 5.57408 7.4853 24.3565
1 5.7077 9.38494 25.9115
2 5.59962 7.49397 26.3594
1 3.6818 7.47706 26.7639
1 5.58298 7.50781 28.3586
2 3.6718 11.3128 28.7108
1 3.65448 13.2544 0.252593
1 3.65112 11.3233 1.7989
2 3.6634 13.2417 2.18249
1 5.55606 13.2366 2.62324
1 3.65567 13.2442 4.19466
2 5.53344 12.9897 4.53493
1 5.58023 11.2341 5.06539
1 5.54801 13.4677 6.39767
2 5.57581 11.3034 7.01568
1 3.67913 11.3612 7.46146
1 5.58694 11.3527 9.01521
2 3.68778 11.3182 9.44946
1 3.66843 13.233 9.83831
1 3.66706 11.325 11.4137
2 3.67529 13.2366 11.8325
1 5.5851 13.2739 12.2527
1 3.65506 13.1905 13.817
2 5.55193 13.3765 14.2502
1 5.64873 11.3256 14.5556
1 5.42915 13.1579 16.2737
2 5.92442 11.3505 16.3707
2 3.13103 11.2001 19.4481
1 3.82129 13.1261 19.5293
1 3.59368 11.3274 21.2616
2 3.71736 13.215 21.517
1 5.60583 13.25 21.9901
1 3.67471 13.2874 23.4452
2 5.58829 13.2506 23.9438
1 5.52046 11.3375 24.3837
1 5.70787 13.2805 25.898
2 5.47737 11.329 26.3985
1 3.68422 12.0317 26.8964
1 5.61148 11.3074 28.3939
2 3.69259 15.1636 -0.184327
1 3.66339 17.0854 0.206362
1 3.69191 15.17 1.79917
2 3.72367 17.0815 2.19553
1 5.59586 17.1046 2.66446
1 3.76114 17.0181 4.25172
2 5.63236 17.32 4.54042
1 5.59724 16.9592 6.42677
2 5.58285 15.201 7.23897
1 3.66609 15.1457 7.43904
1 5.57765 15.1133 9.11739
2 3.66406 15.1376 9.43221
1 3.8402 17.0637 9.75366
1 3.65592 15.1597 11.4063
2 3.7106 17.07 11.6175
1 5.4147 17.0584 12.4555
2 5.84486 16.9498 14.371
1 6.21556 15.0889 14.8083
1 5.68773 17.1424 16.3101
2 5.53352 15.1815 16.6102
1 3.618 15.2424 17.1665
1 5.55387 15.2687 18.6625
2 3.69505 15.1483 19.1226
1 3.65848 17.2887 19.7863
1 3.70071 15.0542 21.0399
2 3.68684 16.7968 21.6314
1 5.53615 17.1525 21.9502
1 3.64801 16.9874 23.5617
2 5.58314 17.0863 23.9577
1 5.57067 15.174 24.3485
1 5.60094 17.075 25.9526
2 5.58588 15.1643 26.3571
1 3.69847 15.3041 26.8845
1 5.57896 15.0174 28.3329
2 3.67114 19.0027 -0.234955
1 3.6812 20.9011 0.193827
1 3.69551 18.9987 1.77209
2 3.68414 21.0034 2.17635
1 5.60608 20.8493 2.61613
1 3.68783 20.9284 4.17393
2 5.61119 20.953 4.59836
1 5.64413 19.0871 5.06008
1 5.54576 20.9123 6.64764
2 5.35539 18.9742 6.92025
1 3.60262 18.9673 7.42524
1 5.85248 18.9684 8.72466
2 3.49036 19.0172 9.37227
1 3.79213 20.9301 9.83923
1 3.66186 18.973 11.3485
2 3.69996 20.854 11.8327
1 5.58006 20.8882 12.2492
1 3.66401 20.8468 13.797
2 5.56597 20.8858 14.3797
1 5.51632 18.8896 14.6441
1 6.33542 20.8047 16.2137
2 5.52982 19.0812 16.6247
1 3.55347 18.7588 17.0203
1 5.47099 19.0167 18.5777
2 3.61548 18.967 18.9031
1 3.65228 20.6993 19.7463
2 3.66334 21.1686 21.6341
1 5.59029 20.9191 21.9159
1 3.58521 21.4284 23.4928
2 5.4627 21.0091 23.9352
1 5.66774 18.9679 24.4143
1 5.54928 20.8915 25.9314
2 5.60084 18.9978 26.366
1 3.64798 18.9382 26.7437
1 5.5498 19.1119 28.3135
2 3.68884 22.8274 -0.136465
1 3.49874 24.7401 0.184738
1 4.53089 23.1166 1.80903
2 3.40082 24.6135 2.10986
1 3.85426 24.7539 4.02274
2 5.62485 24.7161 4.80696
1 5.59073 22.8338 5.08255
1 5.52393 24.7267 6.70009
2 5.57679 22.8059 7.06703
1 3.45799 22.841 7.70633
1 5.68395 22.8575 8.99919
2 3.95035 22.8342 9.53187
1 3.68195 24.9319 10.0966
1 3.71252 22.7451 11.3982
2 3.39073 24.45 11.8677
1 3.91475 24.8436 13.5874
2 5.61078 24.7557 14.4788
1 5.538 22.8513 14.7114
1 5.55058 24.7467 16.3451
2 5.58183 22.6617 16.6842
1 3.64787 22.8971 17.1763
1 5.60999 22.7507 18.6983
2 3.68927 22.8511 19.1184
1 3.63462 24.7723 19.4703
1 3.71824 22.9439 21.0347
2 3.67928 24.901 21.486
1 5.64555 24.6179 22.0171
1 3.64292 24.8937 23.459
2 5.60488 24.6797 23.9878
1 6.44649 22.7876 24.3451
1 5.66087 24.7758 25.9519
2 5.6144 22.8294 26.3175
1 3.6614 22.8332 26.8603
1 5.61703 22.8064 28.3364
2 7.39663 -0.155557 28.7347
1 7.61714 1.75748 0.231916
1 7.43002 26.555 1.75584
2 7.47262 1.70907 2.17917
1 9.3031 1.75393 2.63446
2 9.56211 1.72442 4.57351
1 9.37565 26.5858 5.07966
1 9.48152 1.76663 6.56096
2 9.40809 -0.146078 7.05619
1 7.49055 26.6391 7.42784
1 9.40514 -0.149859 9.03967
2 7.47136 26.6366 9.39346
1 7.49622 1.75152 9.76465
1 7.39866 26.6251 11.4175
2 7.44942 1.7423 11.6417
1 9.18753 1.76371 12.462
2 9.66996 1.76935 14.3112
1 9.33223 -0.101489 14.6114
1 9.44758 1.76074 16.1954
2 9.42985 -0.126812 16.6515
1 7.49702 -0.122291 17.0067
1 9.4084 -0.121625 18.638
2 7.48146 -0.148673 18.8877
1 7.39236 1.47072 19.8333
2 7.53781 2.03448 21.6354
1 9.38341 1.69531 21.9442
1 7.52032 1.76632 23.5511
2 9.42279 1.74839 23.9522
1 9.46432 26.65 24.3676
1 9.31571 1.73144 25.9108
2 9.40557 26.6413 26.36
1 7.50989 -0.130319 26.7576
1 9.42229 26.6239 28.3558
2 7.50314 3.64438 28.7577
1 7.49843 5.58187 0.100495
1 7.47578 3.68274 1.74845
2 7.50274 5.58418 1.98173
1 9.22695 5.57012 2.81728
2 9.66608 5.57695 4.69052
1 9.24716 3.73443 5.02903
1 9.38937 5.59089 6.60816
2 9.3838 3.66775 7.02364
1 7.49158 3.68111 7.44442
1 9.39641 3.67987 9.02488
2 7.47384 3.70516 9.40913
1 7.42832 5.64182 9.85069
1 7.47018 3.65445 11.3841
2 7.45041 5.58545 11.8517
1 9.30235 5.58699 12.306
1 7.44622 5.57674 13.8659
2 9.38856 5.56948 14.2439
1 9.41253 3.64759 14.6648
1 9.49757 5.57344 16.1678
2 9.40121 3.63753 16.7546
1 7.4474 3.61574 17.0468
1 9.27057 4.33122 18.5081
2 7.5573 3.70072 19.0632
1 7.3807 5.68007 19.5481
1 7.57798 3.7778 21.0354
2 7.48905 5.64197 21.5237
1 9.41284 5.62406 21.9963
1 7.49032 5.58956 23.52
2 9.41042 5.595 23.948
1 9.45754 3.67051 24.3582
1 9.29227 5.61393 25.9019
2 9.52826 3.67147 26.3837
1 7.48666 3.62302 26.779
1 9.40004 3.68404 28.377
2 7.50593 7.5121 28.748
1 7.52603 9.40918 0.17691
1 7.49993 7.48628 1.72647
2 7.48546 9.39904 2.17394
1 9.41056 9.39242 2.58768
1 7.49429 9.39359 4.16459
2 9.40077 9.34877 4.60385
1 9.30842 7.43855 5.03252
1 9.35746 9.34664 6.62272
2 9.38643 7.48163 7.05031
1 7.32004 7.48301 7.65491
1 9.53071 7.48717 8.99729
2 7.77275 7.49731 9.51548
1 7.42756 9.36284 9.84396
1 7.5628 7.54602 11.4304
2 7.24738 9.41912 11.7625
1 7.7098 9.42913 13.5993
2 9.42313 9.41174 14.5273
1 9.44543 7.47528 14.6608
1 10.1575 9.40379 16.2803
2 9.42123 7.59964 16.6628
1 7.4564 7.41359 17.1351
1 9.43408 7.51179 18.6011
2 7.49496 7.66898 19.114
1 8.32961 9.41995 19.6686
1 7.46863 7.51916 21.1091
2 7.44634 9.42898 21.4261
1 9.30063 9.40769 22.0146
1 7.47705 9.41465 23.5891
2 9.39225 9.42141 23.9332
1 9.45316 7.52169 24.3596
1 9.44713 9.41936 25.9273
2 9.4128 7.50545 26.3607
1 7.50711 7.51599 26.7823
1 9.4279 7.49569 28.3511
2 7.50324 11.3354 -0.224491
1 7.56702 13.2467 0.212916
1 7.37764 11.301 1.74891
2 7.6007 13.268 2.23109
1 9.28527 13.9898 3.02127
1 7.35947 13.2878 4.19936
2 9.38452 12.9959 4.59934
1 9.40329 11.2064 5.08161
1 10.0403 13.3928 6.41292
2 9.39809 11.4639 6.99678
1 7.4601 11.2683 7.45651
1 9.39194 11.4073 8.99152
2 7.49775 11.3041 9.42192
1 7.48525 13.2305 9.85482
1 7.56781 11.27 11.4026
2 7.49642 13.2066 11.8393
1 9.39881 13.2578 12.2259
1 7.51138 13.1362 13.815
2 9.37468 13.2381 14.2543
1 9.40796 11.3399 14.7023
1 9.38694 13.2276 16.2464
2 9.45179 11.2241 16.6956
1 7.4535 11.4407 17.331
1 9.58983 11.3177 18.6233
2 7.78504 11.3433 19.2485
1 8.16354 13.25 19.6355
1 7.52785 11.3373 21.2088
2 7.49261 13.2448 21.4542
1 9.43786 13.2333 22.001
1 7.50568 13.25 23.5367
2 9.40875 13.2362 23.9541
1 9.43802 11.3185 24.3695
1 9.40512 13.2338 25.9312
2 9.41117 11.33 26.3677
1 7.49626 11.3324 26.7935
1 9.42523 11.3242 28.3578
2 7.49964 15.2794 -0.224188
1 8.25975 17.0773 0.225519
1 7.38424 15.1595 1.73635
2 7.45894 17.0707 2.04719
1 9.29991 17.1723 2.66722
1 7.48456 16.9165 4.27701
2 9.40824 17.2763 4.51088
1 9.41049 16.8272 6.32927
2 9.38418 15.0439 7.19733
1 7.46708 15.3087 7.5667
1 9.41146 15.0993 9.10678
2 7.49702 15.1709 9.51005
1 7.45724 17.0827 9.93092
1 7.47532 15.1525 11.4619
2 7.48651 17.0604 11.8706
1 9.44423 17.0988 12.2105
1 7.59319 16.9912 13.7519
2 9.45366 17.1642 14.252
1 9.40659 15.1452 14.6976
1 9.45211 17.0541 16.249
2 9.40654 15.1492 16.6733
1 7.49131 15.0952 17.1512
1 9.44261 15.1633 18.6145
2 7.49378 15.0199 19.1129
1 7.47577 17.0606 19.5495
1 7.44873 15.163 21.1016
2 7.49309 17.0528 21.5433
1 9.3963 17.063 22.0014
1 7.4854 17.0456 23.5263
2 9.40919 17.0699 23.954
1 9.40638 15.1549 24.3694
1 9.42431 17.0794 25.945
2 9.41805 15.1492 26.3388
1 7.49907 15.2271 26.7752
1 9.43249 15.0386 28.2624
2 7.50787 18.8853 -0.201299
1 7.50108 20.9052 0.214523
1 7.51067 19.0189 1.7971
2 7.53364 20.9267 2.18375
1 9.48165 20.9729 2.56838
1 7.51829 20.9334 4.13619
2 9.40427 20.9444 4.71222
1 9.44975 19.035 5.00838
1 10.0726 20.9603 6.54997
2 9.68149 19.1317 6.91105
1 9.1282 18.8747 8.70446
2 7.49796 18.9968 9.6307
1 7.49056 20.9109 9.89465
1 7.4663 18.9884 11.5124
2 7.48096 20.9536 11.8597
1 9.38156 20.8862 12.2986
1 7.4488 21.0539 13.7803
2 9.37941 20.8149 14.2627
1 10.053 18.981 14.6262
1 9.36307 20.886 16.2042
2 9.46056 18.9777 16.4289
1 7.85081 18.8976 17.4557
2 7.20567 18.9164 19.2026
1 7.39845 20.7791 19.5426
1 7.5198 18.9422 21.0957
2 7.49833 20.8355 21.5197
1 9.4363 20.9036 21.9307
1 7.54012 20.7595 23.4619
2 9.4291 20.8894 23.9323
1 9.43671 18.9808 24.373
1 9.40611 20.9107 25.9192
2 9.41899 19.0037 26.368
1 7.5184 18.9492 26.8102
1 9.46566 19.1544 28.3556
2 7.52951 22.7923 -0.241493
1 7.6517 24.6809 0.203293
1 7.55783 22.8581 1.7874
2 7.46581 24.7073 2.05858
1 7.47542 24.7221 3.93077
2 9.33521 24.7115 4.80728
1 9.34679 22.8417 5.04687
1 9.40134 24.7161 6.68501
2 9.41564 22.7051 7.03511
1 7.4943 22.8937 7.40902
1 9.39206 22.8892 8.99756
2 7.5336 22.8416 9.42108
1 7.49975 24.7571 9.86582
1 7.4426 22.8837 11.4238
2 7.75278 24.7527 11.7608
1 9.50629 24.7314 12.3009
1 7.3111 24.7375 13.6208
2 9.38648 24.7499 14.237
1 9.40177 22.8486 14.6927
1 9.31881 24.817 16.1554
2 9.5167 22.8223 16.8112
1 7.48715 22.9259 17.1098
1 9.29439 23.5328 18.6676
2 7.59417 22.722 19.0808
1 7.4071 25.0504 19.8415
1 7.54519 22.7143 21.0513
2 7.50364 24.4703 21.623
1 9.3777 24.7692 21.9345
1 7.54187 24.8966 23.4905
2 9.42171 24.7563 23.9524
1 9.41305 22.824 24.3212
1 9.40588 24.7289 25.9393
2 9.40153 22.817 26.3212
1 7.53 22.8084 26.8208
1 9.44546 22.7818 28.3382
2 11.316 26.6915 28.7562
1 11.3414 1.7827 0.229734
1 11.3218 -0.0524246 1.66983
2 11.0922 1.81299 2.21716
1 11.3953 2.52224 4.05164
2 13.0896 1.76074 4.77691
1 13.3359 26.6039 5.08087
1 13.1863 1.75441 6.68151
2 13.2509 26.6191 7.0495
1 11.3234 -0.160451 7.43723
1 13.2302 -0.152102 9.03298
2 11.3242 -0.150817 9.43808
1 11.2728 1.77217 9.87147
1 11.3012 -0.129621 11.4425
2 11.3299 1.77486 11.8273
1 13.2889 1.74017 12.1529
1 11.425 1.7556 13.7637
2 13.2916 1.76023 14.0299
1 13.2279 0.0600866 14.9124
2 13.229 26.3866 16.7688
1 11.3659 -0.0655329 17.0771
1 13.2274 26.5853 18.6745
2 11.3169 -0.0989641 19.1094
1 11.5372 1.80834 19.5589
1 11.3195 -0.115465 21.1218
2 11.3511 1.7639 21.5458
1 13.2785 1.79373 21.9537
1 11.3376 1.75791 23.5251
2 13.271 1.76258 23.9396
1 13.2232 26.6463 24.3503
1 13.3611 1.72509 25.9042
2 13.2513 26.6441 26.3617
1 11.3296 26.6056 26.7976
1 13.2329 26.6398 28.376
2 11.3441 3.68574 28.6702
1 11.2946 5.61111 0.248537
1 11.3684 3.67156 1.71573
2 11.3674 5.55769 2.19609
1 13.3244 5.4892 2.57977
1 11.4277 5.60462 4.14335
2 13.2914 5.58187 4.61012
1 13.3707 3.68516 5.10286
1 13.2055 5.59674 6.5635
2 13.2542 3.70206 7.05415
1 11.3127 3.69465 7.41678
1 13.2269 3.6608 9.02524
2 11.3193 3.66631 9.4236
1 11.2098 5.54365 9.90087
1 11.354 3.69239 11.4676
2 11.0599 5.59028 11.7843
1 11.5257 5.53925 13.636
2 13.2175 5.58667 14.4517
1 13.2298 3.52034 14.8194
1 13.2883 5.69912 16.3013
2 13.1978 3.91914 16.6071
1 11.5266 3.58524 17.2789
2 10.9599 3.80239 19.1875
1 12.3061 5.17352 19.4064
1 11.2296 3.64713 21.1706
2 11.3886 5.59344 21.5261
1 13.2779 5.60648 22.0263
1 11.3456 5.61831 23.5534
2 13.2589 5.62296 23.9759
1 13.194 3.67582 24.361
1 13.3385 5.6449 25.8975
2 13.1123 3.67594 26.3513
1 11.3285 4.42998 26.8199
1 13.2794 3.68817 28.3394
2 11.3363 7.49384 28.7701
1 11.3314 9.39287 0.176899
1 11.3299 7.48052 1.79313
2 11.3345 9.40172 2.18121
1 13.2451 9.40521 2.61081
1 11.3133 9.37413 4.17557
2 13.2372 9.41181 4.59226
1 13.2605 7.50671 5.00161
1 13.2414 9.44097 6.54255
2 13.2097 7.51518 7.12584
1 11.3114 7.49615 7.35983
1 13.2018 8.27 8.99787
2 11.4493 7.4995 9.39166
1 11.1668 9.44257 9.94087
1 11.3903 7.47745 11.4457
2 11.5814 9.39977 11.7734
1 13.3424 9.41225 12.2811
1 11.1382 9.43185 13.6062
2 13.2457 9.44817 14.2449
1 13.1848 7.54126 14.6646
1 13.2578 9.4398 16.2387
2 13.2697 7.56993 16.7031
1 11.3934 7.37516 17.1453
1 13.3054 7.54997 18.7048
2 11.3855 7.41591 19.1104
1 11.3896 9.39111 19.5185
1 11.4522 7.579 21.1521
2 11.0352 9.42005 21.4129
1 11.3634 9.44059 23.3242
2 12.8782 9.43207 24.3108
1 13.3321 7.62693 24.3275
1 13.2347 9.41854 26.1
2 13.2771 7.4969 26.3999
1 11.345 7.52494 26.7474
1 13.2585 7.44112 28.3829
2 11.349 11.3211 28.7673
1 11.3509 13.2229 0.191014
1 11.4297 11.2826 1.71855
2 11.1917 13.3644 2.19872
1 13.2411 13.1601 2.62631
1 11.3516 13.3039 4.13522
2 13.2453 13.2433 4.70066
1 13.2285 11.3154 4.98718
1 14.1158 13.1949 6.49596
2 13.2583 11.4224 7.00295
1 11.3043 11.1783 7.49117
1 13.2472 11.3631 9.03996
2 11.3062 11.3171 9.43999
1 11.3544 13.2301 9.87101
1 11.3293 11.3187 11.4605
2 11.3287 13.2357 11.8568
1 13.4493 13.2323 12.4859
1 11.2367 13.2505 13.8102
2 12.991 13.2455 14.3441
1 13.2531 11.3636 14.6641
1 13.287 13.248 16.2324
2 13.2927 11.3438 16.6767
1 11.4221 11.4697 17.0763
1 13.2648 11.3402 18.6876
2 11.4113 11.3517 19.0893
1 11.3597 13.2581 19.562
1 11.3487 11.2789 21.0832
2 11.292 13.2362 21.528
1 13.1337 13.1342 22.0059
1 11.3262 13.2305 23.5868
2 13.2764 13.1916 23.9345
1 13.3529 11.236 24.3513
1 13.277 13.2214 25.8971
2 13.2723 11.3486 26.3936
1 11.3425 11.3264 26.7521
1 13.253 11.3467 28.355
2 11.3616 15.1593 -0.232085
1 11.3317 17.1068 0.0525637
1 12.24 15.5016 1.861
2 11.0571 16.9577 2.05223
1 11.4035 17.0245 4.04271
2 13.1815 17.0624 4.7993
1 13.2329 15.1717 5.05449
1 13.2692 17.057 6.67294
2 13.257 15.0277 7.03999
1 11.3116 15.3401 7.53198
1 13.2392 15.1151 9.05471
2 11.3372 15.1887 9.46736
1 11.2919 17.1062 9.88398
1 11.385 15.1356 11.4276
2 11.3508 17.0528 11.8523
1 13.2616 17.1071 12.2585
1 11.3485 16.8525 13.7962
2 13.2666 17.1539 14.265
1 13.3282 15.1037 14.6876
1 13.2122 17.0526 16.2547
2 13.2643 15.1506 16.6819
1 11.3377 15.1675 17.0691
1 13.2332 15.0158 18.6152
2 11.3325 15.3142 19.1076
1 11.9177 17.1267 19.5361
1 11.2961 15.1743 21.0962
2 11.3054 17.0881 21.4324
1 13.2137 17.1895 22.0275
1 11.3137 17.0279 23.5552
2 13.2349 17.0719 23.9522
1 13.2773 15.1281 24.3424
1 13.2376 17.0539 25.9349
2 13.2534 15.1436 26.3287
1 11.3424 15.1553 26.7383
1 13.2499 15.1241 28.2844
2 11.3455 19.0319 -0.218088
1 11.3525 21.07 0.410919
1 11.4034 18.8229 1.75824
2 11.3466 20.6037 2.26548
1 13.2059 20.9623 2.61251
1 11.3413 20.8981 4.144
2 13.2369 20.9127 4.6194
1 13.1959 18.9777 5.0541
1 13.2449 20.9193 6.60957
2 13.2817 18.9866 7.05168
1 11.4215 18.9207 7.51078
1 13.3063 18.873 9.03987
2 11.3724 19.085 9.47126
1 12.0691 20.9133 9.88822
1 11.3204 18.9717 11.4588
2 11.3278 20.9142 11.7511
1 13.27 20.8628 12.3096
1 11.3214 21.1002 13.7797
2 13.2696 20.801 14.2706
1 14.1184 18.9624 14.7108
1 13.3577 20.8699 16.2476
2 13.251 18.9664 16.425
1 11.3426 18.9757 17.3844
2 11.363 18.8905 19.2708
1 11.4897 20.7425 19.5833
1 11.3076 19.0087 21.1989
2 11.3564 20.9243 21.54
1 13.2511 20.9258 21.9407
1 11.3448 20.9173 23.5191
2 13.3793 20.9024 23.9203
1 13.127 18.968 24.4095
1 13.2808 20.9147 25.9325
2 13.1903 18.9864 26.3629
1 11.3227 19.026 26.7946
1 13.2183 19.0445 28.3617
2 11.3344 22.7966 28.5821
1 11.2872 24.4766 0.473146
2 11.6232 25.0522 2.19216
1 13.3146 24.6926 2.68247
1 11.0176 24.67 3.8836
2 13.2944 24.7148 4.61735
1 13.2056 22.831 5.01825
1 13.206 24.7214 6.5735
2 13.2527 22.8358 7.02044
1 11.3672 22.883 7.49098
1 13.2981 22.9362 8.99226
2 11.3345 22.711 9.45758
1 11.3335 24.7444 9.87488
1 11.335 22.8384 11.4267
2 11.3625 24.7423 11.8568
1 13.223 24.7438 12.2779
1 11.3523 24.7951 13.9037
2 13.2251 24.7184 14.2747
1 13.2124 22.785 14.6806
1 13.405 24.655 16.1918
2 13.1417 22.7799 16.7187
1 11.3497 23.6006 17.1603
1 13.2466 22.836 18.7231
2 11.1906 22.8091 18.9827
1 11.2757 22.8123 21.0601
2 11.2929 24.7425 21.5186
1 13.2076 24.7211 21.9053
1 11.3069 24.7439 23.4981
2 13.1855 24.7419 23.9298
1 13.1366 22.852 24.3793
1 13.2653 24.7452 25.9473
2 13.2508 22.8252 26.3265
1 11.3209 22.8176 26.6994
1 13.2291 22.8362 28.3016
2 15.1393 -0.179717 28.7605
1 15.1383 1.99578 0.439141
1 15.0814 26.554 1.70864
2 15.4597 1.45499 2.16925
1 17.1426 1.82114 2.67249
1 14.7671 1.79925 3.8156
2 17.107 1.77441 4.7172
1 17.0329 26.6409 4.96491
1 17.805 1.75366 6.59559
2 17.0792 -0.0365742 6.98966
1 15.1348 26.5289 7.49441
1 17.0871 -0.106639 9.00945
2 15.1536 26.6406 9.44606
1 15.2218 1.76825 9.8591
1 15.0781 26.6028 11.4077
2 15.289 1.77258 11.846
1 17.0513 2.53251 12.3001
1 15.1614 1.73504 13.8579
2 17.0826 1.76202 14.1625
1 17.1754 26.6013 14.7644
1 17.116 1.7778 16.357
2 17.0331 -0.141527 16.691
1 15.0899 -0.0620139 17.0771
1 16.9921 26.6152 18.6288
2 15.115 26.6057 19.1139
1 15.1233 1.66929 19.585
1 15.2184 26.5933 21.1518
2 15.1647 1.72677 21.5287
1 17.105 1.81605 21.8457
1 15.1977 1.75938 23.4835
2 17.0989 1.73922 23.9166
1 17.172 26.589 24.3135
1 17.0713 1.74168 25.9052
2 17.0973 -0.140599 26.3628
1 15.1677 -0.146615 26.7908
1 17.0526 -0.094661 28.3589
2 15.1684 3.6897 28.5603
1 15.1798 5.40944 0.391038
2 15.1688 5.84187 2.26607
1 16.9813 5.42553 2.63227
1 15.1666 5.64765 4.19532
2 17.0794 5.55955 4.6055
1 17.0349 3.6849 5.02273
1 17.1642 5.61772 6.60043
2 17.0913 3.55411 7.00905
1 15.1479 3.80874 7.48923
1 17.0915 3.62111 9.01642
2 15.1525 3.68901 9.4332
1 15.3488 5.60199 9.8619
1 14.9644 3.75963 11.3898
2 15.4003 5.58182 11.7685
1 17.14 5.6282 12.3299
1 14.841 5.48163 13.5666
2 17.11 5.69338 14.3049
1 17.0373 3.69791 14.7758
1 17.0003 5.53819 16.2974
2 17.121 3.68056 16.6978
1 14.8144 3.57066 17.3722
1 17.0395 3.8354 18.6226
2 15.3493 3.40044 19.1151
1 15.1275 3.93313 20.8603
2 15.1643 5.64477 21.7357
1 17.067 5.60259 22.0022
1 15.1752 5.59054 23.6157
2 17.0732 5.59738 24.0014
1 17.0915 3.66009 24.3322
1 17.0987 5.58549 25.9512
2 17.096 3.65793 26.3054
1 15.1543 3.67914 26.6828
1 17.0668 3.65868 28.2856
2 15.1611 7.50305 -0.21732
1 15.1609 9.43612 0.150241
1 15.1394 7.60335 1.73971
2 15.1515 9.47282 2.18264
1 17.0389 9.55674 2.63159
1 15.1593 9.40064 4.19809
2 17.0822 9.42117 4.59693
1 17.047 7.48496 5.01406
1 17.1773 9.3586 6.59019
2 16.8463 7.48795 6.93088
1 15.0955 7.50134 7.45487
1 17.3843 7.55014 8.74817
2 14.9741 7.51016 9.41031
1 15.3152 9.39503 9.89844
1 15.0776 7.452 11.4255
2 15.2206 9.42169 11.8553
1 17.1085 9.40415 12.264
1 15.1651 9.53361 13.8278
2 17.065 9.31449 14.3053
1 17.8117 7.52093 14.7227
1 16.9299 9.40216 16.2587
2 17.0451 7.4693 16.5402
1 15.1759 7.48332 17.1557
1 17.035 7.38965 18.8444
2 15.1685 7.73283 19.0225
1 15.1943 9.52725 19.3988
1 15.1318 7.46918 20.9535
2 15.5354 9.38884 21.173
1 17.056 9.36639 22.1589
2 17.3801 9.42742 24.0551
1 17.026 7.54912 24.3544
1 17.0808 9.41418 25.943
2 17.0641 7.49864 26.3623
1 15.1642 7.48948 26.7989
1 17.04 7.46715 28.3235
2 15.1615 11.3382 28.7668
1 15.162 13.2415 0.164405
1 15.1422 11.3424 1.73965
2 15.1408 13.244 2.1638
1 17.0859 13.2235 2.55568
1 15.1864 13.2569 4.10726
2 17.0689 13.2599 4.59687
1 17.0406 11.3326 5.03146
1 17.0967 13.2357 6.60867
2 17.0772 11.3062 7.00219
1 15.2008 11.1554 7.47508
1 17.1031 11.349 9.01308
2 15.1824 11.2885 9.41419
1 15.172 13.2301 9.76624
1 15.1702 11.3444 11.3939
2 15.1797 13.2349 11.6476
1 16.95 13.2188 12.4572
2 17.3122 13.2289 14.3526
1 17.0648 11.3617 14.699
1 16.9145 13.2698 16.2057
2 17.1386 11.3439 16.7321
1 15.1757 11.3561 17.0965
1 17.0295 11.3892 18.7687
2 15.1416 11.3963 19.0692
1 15.1298 13.2251 19.5304
1 15.1449 11.2719 21.1575
2 14.8876 13.3433 21.4391
1 15.3159 13.2404 23.3425
2 17.0506 13.2297 24.1436
1 17.0286 11.2982 24.3853
1 17.0813 13.2388 26.0237
2 17.0684 11.317 26.3973
1 15.1696 11.3412 26.7755
1 17.0715 11.321 28.3681
2 15.1323 15.1494 28.7546
1 15.1208 17.0478 0.208992
1 15.0234 15.1352 1.71403
2 15.4229 17.0307 2.12038
1 17.0685 17.7142 2.68655
1 14.8414 17.0757 3.9243
2 17.0907 17.069 4.56879
1 17.0453 15.1395 5.05741
1 17.8585 17.079 6.49189
2 17.0842 15.3017 7.00457
1 15.1691 15.1913 7.5281
1 17.0993 15.1526 9.03911
2 15.1675 15.1682 9.43568
1 15.1886 17.0704 9.87547
1 15.1563 15.1257 11.3967
2 15.1645 17.0439 11.8509
1 17.0527 16.9758 12.307
1 15.185 16.9267 13.8182
2 17.0759 17.0451 14.2739
1 17.07 15.1167 14.6743
1 17.0462 17.0888 16.2629
2 17.0533 15.1586 16.673
1 15.1602 15.2283 17.1143
1 17.1217 15.0233 18.6034
2 15.1869 15.2659 19.2185
1 15.9611 17.037 19.6186
1 15.9987 14.8645 21.1944
2 15.1603 16.9903 21.4163
1 17.0842 17.1323 22.0349
1 15.1599 17.0341 23.5635
2 17.0878 17.0702 23.961
1 17.0745 15.14 24.4058
1 17.1145 17.0829 25.9129
2 17.0832 15.1888 26.3993
1 15.1779 15.1698 26.7605
1 17.0754 15.1524 28.3993
2 15.2429 18.9885 28.7335
1 15.1438 20.9078 0.215046
1 14.9461 18.9381 1.7048
2 15.238 20.9069 2.20341
1 17.0469 21.7792 2.68723
1 15.1291 20.9009 4.18605
2 17.0833 20.9286 4.48401
1 17.0822 19.0265 5.03265
1 17.0864 20.9033 6.60156
2 17.1023 18.8834 6.98226