1860
Atoms. Timestep: 452
2 26.7645 -0.249798 0.181233
1 -0.275995 1.61757 0.593149
1 -0.270351 -0.27365 2.12462
2 26.7651 1.65878 2.51539
1 1.65725 1.65445 2.90623
1 26.7633 1.65632 4.47087
2 1.63022 1.65537 4.84432
1 1.6627 -0.271957 5.26399
1 1.77002 1.66808 6.80875
2 1.62032 26.7351 7.26454
1 26.7511 26.7642 7.60008
1 1.66607 0.477856 9.14082
2 -0.228488 -0.272337 9.55788
1 26.7176 1.67577 9.9784
1 -0.27052 -0.272145 11.525
2 -0.275218 1.65407 11.9192
1 1.6555 1.66056 12.3116
1 -0.257484 1.60398 13.8564
2 1.65662 1.65573 14.2693
1 1.61313 -0.243291 14.6621
1 1.66215 1.61692 16.1924
2 1.67636 -0.287774 16.6061
1 26.7263 26.6868 17.0319
1 1.65773 26.754 18.5764
2 -0.23387 26.7657 18.9987
1 26.6504 1.6463 19.3841
1 -0.230772 26.7455 20.9183
2 26.7456 1.65801 21.36
1 1.65787 1.6444 21.7205
1 -0.263503 1.65515 23.2974
2 1.65563 1.65916 23.6747
1 1.65003 26.7619 24.0727
1 1.66008 1.6462 25.6117
2 1.69205 -0.239512 26.0299
1 -0.274985 26.651 26.4039
1 1.64828 26.7524 27.9822
2 26.7672 3.58754 28.3611
1 26.7667 5.5597 0.592209
1 -0.276779 3.58701 2.12242
2 -0.274632 5.51928 2.51476
1 1.63694 5.47158 2.92733
1 -0.277215 5.51982 4.47587
2 1.65652 5.51892 4.86567
1 1.66225 3.58625 5.26185
1 1.65363 5.52241 6.82442
2 1.6202 3.61939 7.21854
1 26.7631 3.59074 7.60966
1 1.6597 3.59321 9.17295
2 -0.274415 3.58583 9.56838
1 -0.275153 5.51932 9.96214
1 26.768 3.59021 11.5274
2 26.7673 5.52148 11.934
1 1.65882 5.51757 12.3057
1 -0.254663 5.58272 13.9276
2 1.68606 5.51573 14.2477
1 1.66222 3.58982 14.6665
1 1.54654 5.57286 16.202
2 1.68516 3.56778 16.6468
1 -0.2703 4.17024 17.1367
1 1.67172 3.58573 18.6044
2 -0.240581 3.61376 18.9532
1 -0.271196 5.54898 19.3611
1 26.7637 3.58712 20.8923
2 -0.231412 5.51759 21.3317
1 1.65596 6.27542 21.7361
1 26.7553 5.51874 23.2918
2 1.65571 5.51955 23.6288
1 1.65727 3.57779 24.0965
1 1.65523 5.52902 25.6076
2 1.65487 3.58913 26.0777
1 26.7672 3.58808 26.4039
1 1.65749 4.3422 27.9664
2 -0.272614 7.44833 28.3812
1 26.7636 9.37904 0.557666
1 26.7557 7.4549 2.12653
2 -0.273512 9.3825 2.51427
1 1.63538 9.43013 2.92536
1 -0.277474 9.38137 4.47485
2 1.65553 9.38308 4.86563
1 1.65513 7.45093 5.25992
1 1.65614 9.38323 6.82454
2 1.65599 7.45187 7.2169
1 -0.275566 7.45049 7.6092
1 1.65575 7.45084 9.17621
2 26.767 7.45093 9.56777
1 26.7672 9.38248 9.96076
1 -0.275729 7.45125 11.5254
2 -0.275755 9.38186 11.9203
1 1.65604 9.38271 12.312
1 -0.275707 9.38299 13.879
2 1.65558 9.38031 14.2703
1 1.6435 7.45129 14.6704
1 1.66172 9.38888 16.2293
2 1.70468 7.49152 16.6275
1 26.7661 7.44387 17.013
1 1.65343 7.44354 18.5762
2 -0.276449 7.47888 18.9949
1 -0.274001 9.38926 19.3697
1 26.719 7.47333 20.9203
2 -0.274289 9.38271 21.3265
1 1.65477 9.39422 21.7151
1 26.7561 9.38305 23.2586
2 1.65606 9.37934 23.7212
1 1.65623 7.45117 24.0851
1 2.37525 9.38313 25.6198
2 1.65605 7.49287 26.0202
1 26.7447 7.40189 26.4382
1 1.64367 7.4651 27.9631
2 26.7326 11.2785 28.3801
1 -0.162662 13.246 0.541977
1 -0.271312 11.3177 2.11568
2 26.7421 13.2461 2.53349
1 1.65138 13.2475 2.8489
1 26.7481 13.1972 4.4576
2 1.6562 13.2922 4.86466
1 1.65657 11.3157 5.25945
1 1.65638 13.2344 6.83208
2 1.6558 11.3152 7.2171
1 26.7676 11.3117 7.61028
1 1.65612 11.3136 9.17682
2 -0.275678 11.3143 9.56839
1 -0.274326 13.2445 9.96146
1 26.7691 11.3133 11.5274
2 26.7659 13.2463 11.9192
1 1.65912 13.2525 12.3165
1 26.7655 13.2444 13.8802
2 1.62155 13.21 14.2715
1 1.65343 11.3102 14.6641
1 1.66246 13.249 16.2261
2 1.65795 11.316 16.6229
1 -0.274991 11.3165 17.0144
1 1.64997 11.3088 18.5804
2 26.7659 11.3149 18.9736
1 26.7658 13.2456 19.3656
1 26.7668 11.3141 20.9314
2 -0.275238 13.245 21.3242
1 1.65131 13.2496 21.7237
1 26.7465 13.1984 23.2665
2 1.65493 13.2902 23.7026
1 1.65546 11.3258 24.057
1 1.65362 13.2374 25.7031
2 1.65645 11.2431 25.9994
1 26.7497 11.3696 26.4438
1 1.6526 11.4232 28.0047
2 26.7331 15.2127 0.164543
1 26.7635 17.1104 0.553175
1 -0.26822 15.1731 2.11396
2 26.7686 17.1086 2.51317
1 1.65581 17.1066 2.90566
1 -0.274309 17.1086 4.43474
2 1.65505 17.0627 4.87634
1 2.41274 15.177 5.27624
1 1.65646 17.1205 6.83384
2 1.65656 15.1773 7.16891
1 26.7595 15.1766 7.63471
1 1.65581 15.1779 9.17594
2 26.765 15.1779 9.5712
1 26.7621 17.1128 9.96649
1 -0.261363 15.1734 11.5282
2 -0.242898 17.0717 11.9198
1 1.66254 17.1006 12.317
1 26.7625 17.1166 13.8758
2 1.61958 17.1459 14.2714
1 1.76849 15.1778 14.6482
1 1.66543 17.1017 16.226
2 1.631 15.1757 16.642
1 26.7642 15.1767 17.017
1 1.6501 15.1829 18.5829
2 26.7648 15.1763 18.9759
1 -0.274968 17.106 19.3682
1 26.7672 15.1769 20.9315
2 -0.275289 17.1081 21.3271
1 1.65632 17.1054 21.7166
1 26.7473 17.1573 23.2677
2 1.65618 17.0639 23.686
1 2.4107 15.1772 24.0882
1 1.65607 17.1235 25.6437
2 1.65491 15.2007 25.9588
1 26.7595 15.1707 26.4506
1 1.65199 15.0657 28
2 26.7701 19.0389 28.3779
1 26.7675 20.9499 0.541674
1 -0.223993 19.019 2.09705
2 26.7382 20.9948 2.51474
1 1.67282 20.9228 2.92652
1 -0.25473 20.9695 4.45007
2 1.65707 21.016 4.87787
1 1.66927 19.0387 5.259
1 1.65691 20.9602 6.83514
2 1.65455 19.0404 7.21346
1 -0.264191 19.0423 7.63433
1 1.66057 19.041 9.17677
2 -0.2506 19.0414 9.55028
1 26.7529 20.9722 9.97334
1 26.6534 19.0415 11.5425
2 -0.193686 20.9725 11.9289
1 1.66663 20.9714 12.31
1 26.7559 20.9698 13.924
2 1.68092 20.972 14.2515
1 1.64674 19.0477 14.6684
1 1.54053 20.9693 16.2462
2 1.69217 19.0053 16.6233
1 -0.275819 19.155 16.9995
1 1.65298 19.0463 18.5776
2 26.767 19.0146 18.9939
1 26.7673 20.9684 19.3099
1 -0.276516 19.0417 20.9353
2 26.7667 20.9718 21.3144
1 1.65512 20.9727 21.7177
1 -0.272407 20.9705 23.2829
2 1.65603 20.9726 23.6764
1 1.65562 19.041 24.0697
1 1.65773 20.9673 25.6349
2 1.65579 19.0394 26.0286
1 26.7665 19.0409 26.4196
1 1.65742 19.0391 27.9858
2 -0.261118 22.8762 0.193164
1 26.7673 24.8569 0.479926
1 0.671338 22.9046 2.11851
2 -0.246873 24.8321 2.48792
1 1.66636 24.8865 2.93108
1 26.7446 24.8725 4.45022
2 1.65658 24.7921 4.87722
1 2.41414 22.903 5.27544
1 1.65405 24.835 6.80965
2 1.65713 22.9048 7.16786
1 26.7566 22.9045 7.63316
1 1.65878 22.893 9.17426
2 -0.248386 22.9043 9.55029
1 26.7144 24.8138 9.98304
1 26.6533 22.9015 11.5437
2 -0.242606 24.8724 11.9254
1 1.64347 24.8346 12.3054
1 26.7396 24.8289 13.8801
2 1.70858 24.8362 14.2869
1 1.60617 22.8604 14.6697
1 2.56995 24.8333 16.2426
2 1.72165 22.957 16.6032
1 26.73 22.8701 17.0022
1 1.64584 22.9073 18.57
2 -0.272871 22.8976 19.0285
1 -0.282742 24.8324 19.2958
1 26.7675 22.9043 20.9426
2 26.7655 24.8371 21.3248
1 1.65589 24.8344 21.7153
1 -0.26891 24.8374 23.3418
2 1.68314 24.8352 23.6577
1 1.64962 22.907 24.0729
1 1.53999 24.8365 25.6496
2 1.68926 22.8697 26.0245
1 -0.272027 23.0183 26.4047
1 1.65973 22.9092 27.9543
2 3.53889 -0.232818 28.3747
1 3.63031 1.64253 0.576183
1 3.60398 26.7671 2.11283
2 3.58889 1.65594 2.52745
1 5.51997 1.65565 2.90504
1 3.58827 1.6564 4.53095
2 5.54492 1.65504 4.84559
1 5.5151 -0.269689 5.2657
1 5.405 1.65628 6.83955
2 5.55342 26.7337 7.22973
1 3.59848 -0.165609 7.58302
1 5.51166 -0.271136 9.22869
2 3.51149 26.743 9.55778
1 3.64539 1.67703 9.92616
1 3.69154 -0.26339 11.5125
2 3.55228 1.68591 11.9072
1 5.51868 1.53543 12.3042
1 3.58899 1.66402 13.8698
2 5.48562 1.71338 14.289
1 5.65948 -0.257796 14.6046
1 5.57543 1.63423 16.2102
2 5.49379 -0.27344 16.6338
1 3.60787 -0.236182 17.0389
1 5.51886 26.7635 18.5858
2 3.58689 -0.270234 18.9756
1 3.58741 1.64366 19.3928
1 3.58773 -0.277162 20.9353
2 3.58644 1.65789 21.3275
1 5.51762 1.65469 21.7211
1 3.58727 1.65518 23.285
2 5.51766 1.65746 23.6766
1 5.51984 -0.272823 24.0647
1 5.51999 1.66011 25.6312
2 5.51912 -0.248249 26.006
1 3.59401 26.7602 26.4252
1 5.52036 26.7733 27.9848
2 3.54239 3.58923 28.3698
1 3.6357 5.5249 0.564955
1 3.58521 3.58712 2.12216
2 3.58839 5.56555 2.50346
1 5.54329 5.47772 2.92957
1 3.58419 5.52041 4.47322
2 5.48264 5.48259 4.86595
1 5.51066 3.57999 5.26377
1 5.52804 5.52537 6.82068
2 5.55626 3.62211 7.2164
1 3.58794 3.47505 7.59422
1 5.51467 3.58476 9.17039
2 3.58701 3.61151 9.58808
1 3.58827 5.52235 9.96228
1 3.58505 3.59267 11.5322
2 3.58968 5.52177 11.9194
1 5.52021 5.51879 12.3112
1 3.59253 5.5193 13.873
2 5.52048 5.52035 14.2714
1 5.51484 3.59444 14.6652
1 5.56747 5.53823 16.2142
2 5.47556 3.58587 16.6337
1 3.58588 4.34796 17.0321
1 5.52713 3.59032 18.5889
2 3.58977 3.58654 18.9292
1 3.5857 5.52977 19.3919
1 3.63663 3.56767 20.9158
2 3.54106 5.51871 21.3375
1 5.52023 5.51803 21.7182
1 3.59945 5.5176 23.2932
2 5.51838 5.52041 23.6773
1 5.52079 3.58774 24.0691
1 5.52209 5.51818 25.6348
2 5.51798 3.58813 26.0301
1 3.59908 3.5863 26.4118
1 5.52024 3.58844 27.9875
2 3.58791 7.44864 0.208573
1 3.5399 9.37069 0.567219
1 4.34294 7.45227 2.10595
2 3.58631 9.33595 2.50409
1 5.53507 9.42057 2.93283
1 3.58352 9.38166 4.4736
2 5.48351 9.41913 4.86675
1 5.634 7.4516 5.2439
1 5.52582 9.37934 6.82071
2 5.4937 7.45175 7.23683
1 3.58461 7.45161 7.61139
1 5.51963 7.45035 9.17864
2 3.58656 7.4512 9.5697
1 3.58772 9.38216 9.96028
1 3.58741 7.45133 11.528
2 3.58769 9.3822 11.9202
1 5.51908 9.38313 12.3119
1 3.58725 9.38149 13.8796
2 5.51891 9.3804 14.2694
1 5.51817 7.45254 14.6617
1 5.51745 9.3771 16.226
2 5.51995 7.44925 16.623
1 3.59462 7.46625 17.0159
1 5.52054 7.45029 18.5811
2 3.58824 7.44582 18.9726
1 3.5818 9.3773 19.3662
1 3.63555 7.47171 20.9157
2 3.58799 9.38202 21.3235
1 5.52129 9.38328 21.7181
1 3.58709 9.383 23.2377
2 5.51917 9.38353 23.7237
1 5.51993 7.43893 24.0597
1 6.30666 9.3741 25.5969
2 5.51912 7.49893 26.0184
1 3.58809 7.36444 26.4544
1 5.53353 7.44439 27.9641
2 3.67103 11.2773 28.37
1 3.44682 13.2655 0.563775
1 3.58157 11.3123 2.11705
2 3.57722 13.2073 2.53393
1 5.51941 13.3608 2.89671
1 3.61046 13.2035 4.45506
2 5.51842 13.2209 4.88733
1 5.51759 11.3142 5.26322
1 5.51857 13.2455 6.82865
2 5.51963 11.3128 7.21923
1 3.58864 11.3129 7.60857
1 5.51958 11.3148 9.17709
2 3.58746 11.313 9.56648
1 3.58786 13.2453 9.95862
1 3.58791 11.3111 11.5252
2 3.58695 13.2206 11.8999
1 5.51087 13.2496 12.3179
1 3.58822 13.3586 13.8932
2 5.55777 13.212 14.2885
1 5.52208 11.3105 14.6597
1 5.49207 13.2485 16.2982
2 5.52266 11.2841 16.5981
1 3.59102 11.3294 17.0234
1 5.48142 11.3902 18.5713
2 3.54467 11.2664 18.9786
1 3.59399 13.2461 19.3646
1 3.59644 11.3166 20.9269
2 3.55911 13.2452 21.3468
1 5.49715 13.2474 21.7111
1 3.60374 13.199 23.2709
2 5.51807 13.2447 23.6714
1 5.52086 11.3241 24.0619
1 5.52171 13.2575 25.6102
2 5.51763 11.2681 26.0626
1 3.5732 11.4069 26.447
1 5.51704 12.0793 27.9752
2 3.59648 15.212 28.3609
1 3.59631 17.1101 0.560264
1 3.69474 15.177 2.13278
2 3.55116 17.1439 2.5147
1 5.51834 16.9953 2.89063
1 3.61085 17.1508 4.45149
2 5.51832 17.1334 4.88539
1 5.53009 15.178 5.19792
1 5.52013 17.1088 6.82795
2 5.51454 15.1769 7.20038
1 3.59859 15.1773 7.63726
1 5.51731 15.1773 9.17311
2 3.58659 15.1773 9.58274
1 3.58778 17.1094 9.95873
1 3.5862 15.1775 11.5863
2 3.58766 17.1344 11.8999
1 5.51251 17.1052 12.3167
1 3.58724 16.9962 13.8949
2 5.55518 17.1443 14.2701
1 5.40673 15.1783 14.6455
1 5.51097 17.1115 16.2219
2 5.5505 15.2081 16.6169
1 3.59114 15.1617 16.9645
1 5.48122 15.1023 18.5745
2 3.54471 15.2258 18.9674
1 3.58284 17.1156 19.3677
1 3.59661 15.175 20.9255
2 3.58739 17.1096 21.3261
1 5.51476 17.1037 21.7185
1 3.60759 17.157 23.2674
2 5.51978 17.108 23.6783
1 5.53106 15.1791 24.0698
1 5.51891 17.1081 25.6368
2 5.51625 15.1741 26.0403
1 3.59512 15.1716 26.4473
1 5.52354 15.191 28.0454
2 3.58875 19.042 28.379
1 3.5389 20.9539 0.577687
1 3.58739 19.0366 2.11958
2 3.55093 20.9364 2.51464
1 5.52139 21.079 2.89239
1 3.61369 20.9316 4.45379
2 5.51881 20.9485 4.8852
1 5.52204 19.0406 5.26367
1 5.51952 20.9723 6.8277
2 5.51933 19.0407 7.22023
1 3.58905 19.0407 7.60879
1 5.51967 19.0399 9.17723
2 3.58784 19.0419 9.56666
1 3.58771 20.9703 9.95983
1 3.58821 19.0436 11.5256
2 3.59168 20.9739 11.9202
1 5.52004 20.9711 12.3119
1 3.5912 20.9615 13.8778
2 5.5187 20.9728 14.2709
1 5.52193 19.044 14.6631
1 5.52094 20.9686 16.2319
2 5.51803 19.0409 16.6212
1 3.59098 19.0379 17.0157
1 5.51494 19.0417 18.577
2 3.58779 19.0426 18.9747
1 3.58797 20.9713 19.3686
1 3.58629 19.0415 20.9322
2 3.5862 20.9711 21.3258
1 5.51308 20.9778 21.7193
1 3.58681 20.9731 23.2847
2 5.51996 20.9717 23.6758
1 5.52105 19.0391 24.0683
1 5.51916 20.9621 25.6091
2 5.51963 19.0419 26.0292
1 3.58792 19.0414 26.421
1 5.51914 19.0282 27.9878
2 3.5763 22.8863 28.3462
1 3.66747 24.8707 0.569835
1 3.71557 22.9061 2.12926
2 3.52053 24.8664 2.53337
1 5.52105 24.7333 2.81338
1 3.61665 24.8756 4.45446
2 5.5179 24.8601 4.87857
1 5.53064 22.905 5.1977
1 5.5235 24.8326 6.82621
2 5.5164 22.9032 7.20279
1 3.59932 22.9031 7.63489
1 5.52295 22.9031 9.1743
2 3.58762 22.9059 9.56765
1 3.6412 24.8177 9.98634
1 3.58514 22.888 11.5027
2 3.55545 24.8023 11.9701
1 5.5361 24.9549 12.2898
1 3.60966 25.5926 13.8295
2 5.43616 24.779 14.2775
1 5.56524 22.8784 14.683
1 5.53477 24.8406 16.2284
2 5.52175 22.9033 16.6249
1 3.61478 22.8536 17.0367
1 5.52279 22.9044 18.5855
2 3.58607 22.9008 18.9753
1 3.58716 24.8352 19.3667
1 3.58785 22.9034 20.9338
2 3.58863 24.8355 21.3232
1 5.51983 24.8354 21.7182
1 3.5907 24.8354 23.282
2 5.51811 24.8348 23.6835
1 5.51888 22.9046 24.0696
1 5.51938 24.8576 25.6444
2 5.51902 22.8959 26.0622
1 3.57432 22.8983 26.4016
1 5.51926 23.4838 27.9297
2 7.49872 -0.233747 28.3758
1 7.45696 1.66141 0.555304
1 7.43417 26.7651 2.11321
2 7.45219 1.65572 2.51244
1 9.36123 1.60845 2.92569
1 7.45171 1.65601 4.47108
2 9.38289 1.655 4.87877
1 9.38173 26.764 5.25533
1 9.32979 1.63192 6.86368
2 9.38615 26.7428 7.20258
1 7.45823 -0.273207 7.6086
1 9.3796 -0.161783 9.25524
2 7.41507 26.7335 9.52399
1 7.56532 1.64282 9.95843
1 7.45436 -0.273742 11.6288
2 7.42434 1.75893 11.9274
1 9.38051 1.53613 12.2386
1 7.45638 1.53269 13.8828
2 9.41496 1.715 14.2943
1 9.27988 26.7671 14.5829
1 9.37548 1.65141 16.2838
2 9.4083 26.7411 16.6156
1 7.45623 -0.269828 16.9614
1 9.38296 -0.163191 18.5985
2 7.41614 26.7315 18.9622
1 7.56435 1.65497 19.3524
1 7.45807 -0.272917 20.9279
2 7.42527 1.65617 21.3456
1 9.38247 1.65591 21.6593
1 7.45139 1.65502 23.2882
2 9.38374 1.65643 23.6641
1 9.38738 26.7676 24.0739
1 9.37937 1.65886 25.6337
2 9.34793 -0.241746 26.0282
1 7.44524 26.7599 26.4251
1 9.39044 26.7636 27.9803
2 7.4524 3.5877 0.162659
1 7.45145 5.51829 0.552717
1 7.44069 3.58333 2.1199
2 7.45183 5.4928 2.49301
1 9.35904 5.57194 2.92755
1 7.44825 5.63266 4.48857
2 9.41711 5.4858 4.86307
1 9.38863 3.5823 5.25575
1 9.29021 5.52383 6.78663
2 9.42891 3.61005 7.20759
1 7.45671 3.58106 7.61596
1 9.37017 3.48356 9.19774
2 7.41625 3.6212 9.56692
1 7.44569 5.52317 9.96089
1 7.45623 3.5978 11.5197
2 7.45309 5.52266 11.9202
1 9.3618 5.47104 12.3312
1 7.44987 5.52075 13.8793
2 9.38246 5.52135 14.2703
1 9.38395 3.59301 14.6636
1 9.38237 5.52199 16.229
2 9.38152 3.61352 16.6045
1 7.45456 3.58115 17.0198
1 9.38189 3.47464 18.5964
2 7.41473 3.62265 18.9742
1 7.44943 5.52328 19.3671
1 7.45812 3.58464 20.9297
2 7.4514 5.51915 21.3258
1 9.38246 5.51962 21.7182
1 7.45108 5.51825 23.2841
2 9.38203 5.51893 23.677
1 9.38289 3.587 24.0694
1 9.38407 5.51867 25.6349
2 9.38348 3.58847 26.0271
1 7.44863 3.58704 26.4199
1 9.37167 3.58719 27.9618
2 7.4476 7.45318 0.175944
1 7.51696 9.36626 0.579397
1 7.45409 7.44378 2.18021
2 7.4001 9.36364 2.49712
1 9.38047 9.38466 2.90948
1 7.4538 9.27661 4.4858
2 9.4202 9.38951 4.88746
1 9.27412 7.44955 5.24787
1 9.3245 9.3926 6.80664
2 9.45493 7.44859 7.24579
1 7.44716 7.45246 7.55124
1 9.3605 7.45263 9.1627
2 7.45447 7.4516 9.55739
1 7.45048 9.38309 9.96043
1 7.43903 7.4511 11.5272
2 7.45139 9.38093 11.9192
1 9.3586 9.42765 12.3298
1 7.44748 9.38117 13.8791
2 9.38264 9.38472 14.2713
1 9.38376 7.45 14.6638
1 9.33298 9.3611 16.2107
2 9.38304 7.45227 16.6242
1 7.45101 7.4503 17.0166
1 9.38272 7.45127 18.5828
2 7.45093 7.45141 18.9734
1 7.45067 9.37872 19.369
1 7.45149 7.45054 20.9325
2 7.44853 9.38124 21.3243
1 9.38067 9.37931 21.7182
1 7.46236 9.38197 23.2576
2 9.37984 9.38378 23.6794
1 9.38343 7.45116 24.0688
1 9.39535 9.3826 25.6365
2 9.38117 7.45195 26.0283
1 7.47306 7.40105 26.4399
1 9.38431 7.45139 27.9883
2 7.37281 11.3161 28.3463
1 7.50111 13.2661 0.581098
1 7.52608 11.2785 2.10684
2 7.49729 13.227 2.52942
1 9.37545 14.1691 2.9037
1 7.4258 13.2578 4.48255
2 9.35695 13.2545 4.82661
1 9.39201 11.2995 5.25526
1 9.49478 13.2453 6.84161
2 9.34644 11.2782 7.21143
1 7.44591 11.3136 7.61095
1 9.38165 11.3216 9.16843
2 7.45203 11.315 9.56863
1 7.45715 13.2488 9.96504
1 7.44547 11.3112 11.5259
2 7.4162 13.2109 11.9167
1 9.37902 13.3612 12.297
1 7.44498 13.2502 13.8463
2 9.37946 13.2232 14.3349
1 9.38626 11.301 14.6606
1 10.0719 13.3452 16.1273
2 9.42116 11.3507 16.6224
1 7.42597 11.2738 17.0378
1 9.38835 11.2671 18.5671
2 7.47021 11.3258 18.9906
1 8.36958 13.2419 19.3747
1 7.45437 11.2937 20.9488
2 7.45771 13.244 21.3041
1 9.38797 13.2467 21.7454
1 7.45047 13.2464 23.2851
2 9.38303 13.2444 23.6784
1 9.38327 11.3138 24.0719
1 9.38461 13.2463 25.6353
2 9.38121 11.3131 26.043
1 7.48141 11.3641 26.4257
1 9.3848 11.3049 28.0598
2 7.47417 15.1766 28.359
1 7.44424 17.1073 0.557701
1 7.30315 15.1951 2.122
2 7.48514 17.143 2.51383
1 9.38579 17.1205 2.90697
1 7.44792 17.1024 4.46941
2 9.38325 17.1071 4.86536
1 9.38952 15.1842 5.28876
1 9.37859 17.1135 6.82532
2 9.34698 15.2129 7.23006
1 7.44592 15.1799 7.60788
1 9.38565 15.1702 9.23057
2 7.42497 15.1764 9.54934
1 7.45786 17.1055 9.96456
1 7.5639 15.1779 11.5409
2 7.41512 17.1431 11.9191
1 9.38226 16.9967 12.2956
1 7.45597 17.1055 13.8727
2 9.38318 17.1345 14.2901
1 9.38095 15.1934 14.5858
1 9.33246 17.0892 16.211
2 9.38361 15.1375 16.5985
1 7.4277 15.2186 17.0396
1 9.38227 15.1741 18.5395
2 7.47282 15.1668 18.9917
1 7.44744 17.1146 19.372
1 7.45158 15.1904 20.9474
2 7.40943 17.0626 21.3207
1 9.3364 17.1866 21.7543
1 7.45242 17.126 23.279
2 9.3869 17.077 23.7017
1 9.38329 15.1723 24.0744
1 9.38283 17.1078 25.6388
2 9.38346 15.1758 26.0304
1 7.45068 15.178 26.4171
1 9.3866 15.1782 27.9851
2 7.45032 19.0421 0.162335
1 7.48867 20.9541 0.577454
1 7.45375 19.038 2.12314
2 7.48938 20.9385 2.51282
1 9.37393 20.9687 2.93391
1 7.4465 20.9786 4.46999
2 9.38548 20.9731 4.87014
1 9.38098 19.0402 5.25761
1 9.37173 20.9728 6.82609
2 9.3839 19.0422 7.21668
1 7.45078 19.04 7.60899
1 9.38053 19.042 9.1774
2 7.45175 19.0405 9.56792
1 7.45129 20.9721 9.96022
1 7.44784 19.0436 11.5275
2 7.4512 20.9702 11.9204
1 9.38262 20.9735 12.3114
1 7.45084 20.9703 13.8768
2 9.38137 20.9705 14.2702
1 9.38539 19.0433 14.6661
1 9.33496 20.9927 16.2117
2 9.42988 19.0405 16.6405
1 7.44565 19.0391 17.0084
1 9.32984 19.0873 18.5814
2 7.42408 19.0405 18.9513
1 7.45682 20.9714 19.3714
1 7.45784 19.041 20.9362
2 7.40818 21.0213 21.3202
1 9.34687 20.9043 21.7347
1 7.45158 20.9543 23.2759
2 9.34991 20.9688 23.7027
1 9.37125 19.0372 23.9999
1 9.38818 20.9722 25.634
2 9.38393 19.0396 26.0151
1 7.45035 19.0423 26.4192
1 9.36316 18.991 27.9677
2 7.4621 22.8854 28.3487
1 7.37015 24.8709 0.570552
1 7.32901 22.9063 2.13147
2 7.5188 24.8645 2.53341
1 9.39191 24.838 2.91122
1 7.44588 24.8295 4.47027
2 9.38425 24.8332 4.86611
1 9.38147 22.9037 5.25841
1 9.37952 24.8344 6.82297
2 9.38385 22.9041 7.21626
1 7.45008 22.9047 7.60933
1 9.37622 22.9004 9.17754
2 7.44984 22.9053 9.56637
1 7.44922 24.846 9.97301
1 7.4519 22.8885 11.5237
2 7.45156 24.7319 11.9113
1 9.37816 24.9484 12.305
1 7.45248 24.9607 13.8834
2 9.41313 24.7747 14.288
1 9.38543 22.8984 14.6635
1 9.37522 24.8378 16.2248
2 9.38242 22.9021 16.6249
1 7.45112 22.9046 17.0173
1 9.38225 22.9046 18.5815
2 7.45307 22.903 18.9735
1 7.44873 24.8325 19.3671
1 7.44673 22.9106 20.9317
2 7.45209 24.8364 21.3245
1 9.38786 24.8295 21.7218
1 7.44327 24.8378 23.2815
2 9.32137 24.8688 23.6611
1 9.50195 22.9106 24.0617
1 9.50129 24.835 25.6456
2 9.32517 22.8737 26.0426
1 7.46061 22.8973 26.4043
1 9.3722 22.9572 27.9631
2 11.3152 -0.25073 0.182628
1 11.3145 1.64972 0.545976
1 11.2656 -0.255533 2.10652
2 11.3148 1.70203 2.50461
1 13.2665 1.61932 2.92271
1 11.3139 1.6594 4.47082
2 13.2459 1.65465 4.86194
1 13.2441 -0.268458 5.28099
1 13.2967 1.64045 6.80597
2 13.2448 -0.24977 7.19901
1 11.3119 26.7543 7.61604
1 13.2527 26.651 9.18665
2 11.3411 -0.267692 9.54948
1 11.1917 1.64495 9.98327
1 11.207 -0.278009 11.5348
2 11.3758 1.68775 11.9367
1 13.2536 1.65837 12.3155
1 11.3103 1.65245 13.8744
2 13.2473 1.65363 14.2729
1 13.1979 -0.25602 14.681
1 13.2465 1.65874 16.2306
2 13.2454 26.7678 16.622
1 11.3104 -0.269697 17.0206
1 13.2294 -0.228862 18.564
2 11.351 26.7319 18.9751
1 11.1999 1.65706 19.352
1 11.3073 -0.27025 20.928
2 11.3396 1.65606 21.3458
1 13.2482 1.6563 21.7203
1 11.3141 1.65673 23.2875
2 13.2456 1.65635 23.6775
1 13.2405 26.7674 24.0743
1 13.249 1.6594 25.6351
2 13.2786 -0.241058 26.0286
1 11.3138 26.6608 26.4073
1 13.2421 26.7593 27.9795
2 11.3142 3.58814 0.210161
1 11.3142 5.5309 0.545423
1 12.068 3.58847 2.10227
2 11.313 5.47288 2.50318
1 13.2647 5.56918 2.92366
1 11.3179 5.51329 4.46951
2 13.2478 5.52018 4.86566
1 13.2406 3.58647 5.25833
1 13.3307 5.51781 6.79351
2 13.1982 3.58366 7.22755
1 11.3125 4.30904 7.62237
1 13.2614 3.59055 9.18531
2 11.348 3.61974 9.51902
1 11.3172 5.51025 9.99805
1 11.308 3.58513 11.5244
2 11.3117 5.56387 11.9136
1 13.2655 5.47132 12.3303
1 11.3139 5.52198 13.8795
2 13.2458 5.51809 14.2717
1 13.2447 3.58623 14.6643
1 13.2451 5.5178 16.2307
2 13.2456 3.58695 16.6225
1 11.3105 3.58047 17.0189
1 13.249 3.58949 18.5813
2 11.3495 3.62305 18.9741
1 11.3162 5.52285 19.3668
1 11.3063 3.58342 20.9284
2 11.3146 5.51854 21.326
1 13.2256 5.47119 21.7346
1 11.3121 5.52001 23.2866
2 13.2458 5.51826 23.6773
1 13.2447 3.58669 24.0705
1 13.2448 5.5193 25.6362
2 13.2435 3.58893 26.0266
1 11.314 3.58849 26.4211
1 13.2555 3.58808 27.9606
2 11.3133 7.45174 0.161981
1 11.2982 9.38583 0.563319
1 11.3197 7.44493 2.11933
2 11.362 9.33843 2.51845
1 13.2524 9.37865 2.90764
1 11.3155 9.39348 4.46627
2 13.2458 9.38345 4.86499
1 13.2418 7.4541 5.25647
1 13.2974 9.39912 6.80513
2 13.1994 7.44977 7.22541
1 11.3136 8.24002 7.62757
1 13.2671 7.45063 9.16006
2 11.3139 7.45068 9.56803
1 11.321 9.40386 9.98351
1 12.074 7.45576 11.5145
2 11.2788 9.29885 11.9128
1 13.2634 9.52857 12.3145
1 11.3174 9.38463 13.8736
2 13.2464 9.35821 14.2891
1 13.2449 7.44565 14.666
1 13.2954 9.36242 16.2139
2 13.2462 7.451 16.6231
1 11.3124 7.43892 17.013
1 13.2347 7.44851 18.5563
2 11.3168 7.45465 18.9732
1 11.3225 9.373 19.3986
1 11.3003 7.44507 20.9348
2 11.2813 9.34757 21.3279
1 13.2284 9.52886 21.7225
1 11.3149 9.38806 23.2828
2 13.2461 9.35745 23.696
1 13.2455 7.44781 24.074
1 13.2453 9.38257 25.6394
2 13.2452 7.4493 26.03
1 11.3141 7.45141 26.4202
1 13.246 7.45195 27.9879
2 11.345 11.3178 28.3562
1 11.3039 13.2429 0.560847
1 11.2382 11.2774 2.11031
2 11.3045 13.263 2.54161
1 13.2473 13.2462 2.90593
1 11.333 13.2514 4.54646
2 13.2719 13.2449 4.8463
1 13.2391 11.3187 5.26291
1 13.1341 13.2457 6.84077
2 13.2792 11.2775 7.23011
1 11.3134 11.4354 7.59176
1 13.2434 11.3231 9.23075
2 11.2866 11.2848 9.56665
1 11.3145 13.2457 9.91067
1 11.4289 11.3128 11.5424
2 11.3121 13.2447 11.9057
1 13.2512 13.1319 12.2965
1 11.3272 13.2448 13.8396
2 13.2437 13.2713 14.2915
1 13.2411 11.3156 14.6062
1 13.303 13.2664 16.2112
2 13.2048 11.3144 16.636
1 11.4162 12.0017 17.1145
1 13.2633 11.3101 18.6549
2 11.2926 11.3112 18.911
1 11.3283 13.2546 19.4016
1 11.4259 11.3156 20.9487
2 11.2777 13.2802 21.3282
1 13.2454 13.1316 21.7061
1 11.3198 13.2385 23.2835
2 13.2465 13.2718 23.6969
1 13.2454 11.3152 24.0122
1 13.2446 13.2449 25.6391
2 13.2471 11.3138 26.0143
1 11.3148 11.3147 26.4175
1 13.2492 11.3128 27.9813
2 11.3174 15.178 0.161862
1 11.313 17.1118 0.552547
1 11.3637 15.1967 2.10279
2 11.316 17.109 2.51302
1 13.247 17.1099 2.90838
1 11.3141 17.1079 4.47346
2 13.245 17.1096 4.86537
1 13.24 15.1751 5.26234
1 13.2476 17.1126 6.8237
2 13.2826 15.2135 7.21512
1 11.3152 15.0649 7.59271
1 13.2421 15.1686 9.16891
2 11.3405 15.204 9.5683
1 11.3067 17.1082 9.96812
1 11.1992 15.182 11.5428
2 11.3491 17.1455 11.921
1 13.2467 17.112 12.3142
1 11.3113 17.103 13.8721
2 13.2444 17.1089 14.2724
1 13.2447 15.1803 14.6617
1 13.2969 17.0899 16.2079
2 13.2435 15.1771 16.6244
1 11.3374 15.2249 17.0276
1 13.2486 15.0885 18.5506
2 11.3144 15.2236 18.98
1 12.0289 17.078 19.3852
1 11.3122 15.1684 20.9441
2 11.3346 17.1213 21.2645
1 13.2655 17.062 21.782
1 11.3099 17.1185 23.2823
2 13.2453 17.1061 23.682
1 13.2452 15.1787 24.0742
1 13.2451 17.1086 25.6354
2 13.2458 15.1784 26.0309
1 11.3151 15.1773 26.4201
1 13.2462 15.1772 27.9859
2 11.3143 19.0872 0.172574
1 12.0694 20.9724 0.573928
1 11.3137 19.0289 2.1301
2 11.3166 20.9724 2.46669
1 13.2563 20.9611 2.93276
1 11.3035 20.9721 4.44642
2 13.245 20.9732 4.91122
1 13.2458 19.0289 5.2491
1 14.0013 20.9702 6.80652
2 13.246 19.0868 7.20649
1 11.2942 18.993 7.62671
1 13.2416 19.0448 9.17653
2 11.3131 19.0389 9.56773
1 11.3117 20.9684 9.96331
1 11.3166 19.0443 11.5274
2 11.3144 20.9726 11.9208
1 13.2462 20.9711 12.3114
1 11.3132 20.9714 13.8762
2 13.2478 20.9733 14.27
1 13.2421 19.0405 14.6619
1 13.2933 20.9908 16.21
2 13.1999 19.0403 16.6307
1 11.3107 19.8015 17.0285
1 13.2622 19.125 18.5377
2 11.3195 18.997 18.9578
1 11.3157 21.0043 19.3744
1 12.2404 19.0646 20.9571
2 11.3328 20.932 21.2908
1 13.2596 21.0326 21.7463
1 11.3114 21.0687 23.2953
2 13.2789 20.9392 23.6793
1 13.2471 19.0374 24.0709
1 13.2412 20.9729 25.63
2 13.2433 19.0399 26.0282
1 11.3133 19.0431 26.4206
1 13.2642 18.9939 27.9694
2 11.3146 22.8327 0.186768
1 11.3187 24.8358 0.495071
1 11.2664 22.8966 2.11575
2 11.3612 24.8344 2.51169
1 13.2417 25.5888 2.92814
1 11.3031 24.8366 4.48099
2 13.2458 24.8346 4.83015
1 13.2457 22.9057 5.27174
1 13.245 24.8365 6.88395
2 13.2459 22.8322 7.18963
1 11.2973 22.9582 7.63188
1 13.2447 23.0138 9.19152
2 11.2778 22.8686 9.56814
1 11.4221 24.8362 9.95084
1 11.3211 22.9036 11.5232
2 11.3228 24.801 11.9411
1 13.2386 24.8336 12.2441
1 11.3136 24.8409 13.8769
2 13.2923 24.8365 14.2492
1 13.1957 22.8869 14.679
1 13.2488 24.8356 16.2274
2 13.2456 22.9018 16.6229
1 11.3109 22.9168 17.0148
1 13.2219 22.859 18.564
2 11.313 22.903 18.9848
1 11.3046 24.8318 19.3643
1 11.3148 22.9088 20.9929
2 11.3156 24.861 21.3107
1 13.2287 24.8291 21.7471
1 11.3124 24.7233 23.3649
2 13.307 24.8684 23.6639
1 13.1271 22.907 24.0607
1 13.1271 24.8341 25.6458
2 13.3052 22.8716 26.0442
1 11.3136 23.0112 26.3405
1 13.2601 22.9585 27.9648
2 15.1773 26.7652 0.162655
1 15.1806 1.65754 0.551016
1 15.1786 -0.276627 2.08356
2 15.2209 1.65578 2.52373
1 17.1065 2.41283 2.92789
1 15.1694 1.6573 4.48336
2 17.1107 1.6568 4.81782
1 17.1081 26.7569 5.28392
1 17.1057 1.65199 6.82525
2 17.1076 26.7662 7.2159
1 15.1754 26.7601 7.61483
1 17.1087 -0.273094 9.17096
2 15.2129 -0.241594 9.56748
1 15.1819 1.66127 9.95969
1 15.1703 -0.268174 11.4977
2 15.1764 1.65234 11.9213
1 17.1021 1.65976 12.3129
1 15.1764 1.66583 13.8795
2 17.1082 1.6557 14.2711
1 17.1563 -0.254745 14.6812
1 17.1094 1.65649 16.2316
2 17.1093 26.7676 16.6233
1 15.1773 -0.278787 17.0167
1 17.1278 -0.228773 18.5649
2 15.1768 26.7231 18.9847
1 15.1776 1.6566 19.3673
1 15.1761 -0.266187 20.9425
2 15.1787 1.65627 21.3252
1 17.0895 1.60836 21.7356
1 15.1761 1.65634 23.2884
2 17.1112 1.65685 23.6756
1 17.1151 26.7637 24.0758
1 17.1012 1.65334 25.6343
2 17.0753 -0.242164 26.0287
1 15.1769 -0.271116 26.4208
1 17.1113 26.761 27.9777
2 15.1749 3.58843 0.165136
1 15.1776 5.5208 0.553266
1 15.1411 3.60803 2.1049
2 15.1761 5.51757 2.51197
1 17.1081 5.53209 2.90403
1 15.178 5.51869 4.47004
2 17.0837 5.51674 4.84441
1 17.1151 3.60224 5.28809
1 17.2222 5.52104 6.84093
2 17.0736 3.55164 7.21802
1 15.1744 3.58351 7.61165
1 17.1118 3.5929 9.17114
2 15.1777 3.58964 9.56901
1 15.1781 5.51918 9.96071
1 15.1786 3.58582 11.5271
2 15.1772 5.51884 11.9198
1 17.099 5.51824 12.3035
1 15.1791 5.5205 13.8802
2 17.1534 5.52082 14.2616
1 17.062 3.56815 14.6801
1 17.1124 5.51937 16.2297
2 17.1087 3.58823 16.6206
1 15.1747 3.58688 17.0147
1 17.0982 3.5869 18.5561
2 15.1808 3.58803 18.9761
1 15.1759 5.50839 19.3573
1 15.1662 3.5871 20.9335
2 15.1784 5.56284 21.3134
1 17.1094 5.51894 21.7514
1 15.1709 5.52208 23.2831
2 17.0778 5.52285 23.6549
1 17.1254 3.59051 24.081
1 17.1839 5.48301 25.6252
2 17.0611 3.54566 26.0337
1 15.1723 3.58287 26.4215
1 17.1105 3.5965 27.9804
2 15.1761 7.44993 28.3807
1 15.1766 9.38279 0.554904
1 15.1778 7.45195 2.12176
2 15.1786 9.38275 2.5135
1 17.1087 9.38272 2.9072
1 15.1784 9.38284 4.4727
2 17.1098 9.3819 4.86532
1 17.1157 7.44774 5.26191
1 17.1063 9.38625 6.82438
2 17.0736 7.48594 7.21627
1 15.1767 7.45505 7.60979
1 17.1108 7.44517 9.17112
2 15.1738 7.45016 9.56986
1 15.1722 9.38634 9.96411
1 15.1908 7.44739 11.5278
2 15.2099 9.34643 11.9194
1 17.1125 9.38076 12.3122
1 15.1762 9.38882 13.8738
2 17.1098 9.38334 14.2695
1 17.0594 7.46977 14.6798
1 17.1101 9.37432 16.2055
2 17.108 7.45271 16.6226
1 15.1776 7.44956 17.0171
1 17.1189 7.44065 18.5563
2 15.1792 7.45244 19.0202
1 15.1231 9.37765 19.3785
1 15.9266 7.45323 20.9119
2 15.2122 9.30061 21.3149
1 17.131 9.42762 21.7389
1 15.1733 9.38569 23.28
2 17.1057 9.38404 23.6773
1 17.1185 7.44921 24.0773
1 17.0581 9.4031 25.6176
2 17.1214 7.46902 26.0452
1 15.1749 7.452 26.4217
1 17.0886 7.45588 28.0029
2 15.1782 11.315 0.162909
1 15.1274 13.2253 0.573028
1 15.1794 11.3123 2.12388
2 15.1774 13.2463 2.51196
1 17.1051 13.2424 2.90879
1 15.18 13.2459 4.47124
2 17.1097 13.2457 4.86489
1 17.1096 11.3142 5.25695
1 17.1079 13.2418 6.822
2 17.1115 11.3151 7.21549
1 15.182 11.313 7.60771
1 17.112 11.3134 9.17391
2 15.203 11.3143 9.54893
1 15.1686 13.2391 9.96577
1 15.066 11.3157 11.5413
2 15.2137 13.282 11.92
1 17.1126 13.2476 12.3128
1 15.1749 13.2398 13.8728
2 17.1084 13.2442 14.2699
1 17.1093 11.3143 14.6638
1 17.1093 13.2553 16.2033
2 17.1095 11.3141 16.6685
1 15.1656 11.3146 17.0029
1 17.1081 12.0688 18.561
2 15.2492 11.3132 18.9452
1 15.1253 13.2616 19.3899
1 15.0692 11.3164 20.9482
2 15.2126 13.2809 21.3255
1 17.1132 13.2483 21.7215
1 15.1742 13.2391 23.2804
2 17.1098 13.2451 23.6753
1 17.1098 11.3154 24.0675
1 17.1063 13.2338 25.6089
2 17.1083 11.3163 26.0301
1 15.1754 11.3159 26.4217
1 17.109 11.3027 27.9893
2 15.2211 15.178 28.3688
1 15.1213 17.1304 0.574903
1 15.1798 15.177 2.12277
2 15.1782 17.1084 2.513
1 17.0922 17.1101 2.93629
1 15.1761 17.1076 4.47489