1795
Atoms. Timestep: 645
2 -0.312332 -0.30336 0.429343
1 26.8036 1.62834 0.812299
1 -0.310696 26.7923 2.3623
2 -0.307884 1.57474 2.74398
1 1.61962 1.63353 3.10858
1 -0.304941 1.62833 4.67048
2 1.62382 1.62812 5.0408
1 1.63283 -0.307301 5.42989
1 1.62932 1.61929 6.97326
2 1.64849 -0.26706 7.3885
1 -0.308203 26.7992 7.71989
1 1.50679 26.6328 9.34849
2 26.7139 -0.269854 9.65027
1 -0.314655 1.63031 10.0376
1 -0.145872 26.8012 11.6076
2 26.7648 1.66516 11.9695
1 1.62947 1.46236 12.3324
1 -0.308711 1.62731 13.907
2 1.62266 1.68425 14.2866
1 1.6547 -0.18758 14.6059
1 1.65743 1.59084 16.2209
2 1.48099 26.7926 16.4678
1 -0.277852 26.8008 16.9735
1 1.73634 26.7962 18.3829
2 -0.263463 -0.260704 18.88
1 26.8038 1.62573 19.2512
1 26.8043 26.7999 20.811
2 -0.310491 1.62464 21.1882
1 1.62613 1.62156 21.5602
1 26.799 1.62443 23.1225
2 1.58608 1.62239 23.4758
1 1.6305 -0.310051 23.8807
1 1.75302 1.62293 25.4388
2 1.57162 26.7566 25.8073
1 26.7952 26.7995 26.1798
1 1.62145 -0.310424 27.735
2 26.8035 3.56018 0.437491
1 26.7969 5.50385 0.67824
1 -0.310077 3.47278 2.35684
1 1.72164 5.49808 3.1126
1 26.7943 5.50327 4.79498
2 1.58623 5.50161 5.01141
1 1.62101 3.5702 5.41727
1 1.76177 5.50042 6.98349
2 1.58038 3.50819 7.34775
1 -0.312609 3.56245 7.72115
1 1.6177 3.57183 9.27773
2 -0.312541 3.56385 9.65784
1 26.8027 5.4988 10.0292
1 26.7999 3.56709 11.593
2 -0.308701 5.50293 11.9613
1 1.62695 5.4982 12.3384
1 -0.305454 5.49324 13.8949
2 1.62439 5.50107 14.296
1 1.62063 3.57172 14.6453
1 1.62005 5.49652 16.2947
2 1.67184 3.52163 16.5493
1 -0.21536 3.54908 16.9625
1 1.61994 3.7082 18.5128
2 26.7591 3.51857 18.8753
1 -0.174596 5.48665 19.248
1 -0.313526 3.5661 20.8128
2 26.7697 5.50648 21.214
1 1.62688 5.5018 21.4856
1 26.7987 5.49556 23.1301
2 1.57881 5.44875 23.4745
1 1.62829 3.55356 23.8795
1 1.62764 5.50724 25.4266
2 1.57745 3.60524 25.8088
1 26.7991 3.57459 26.181
1 1.61799 3.56896 27.7387
2 -0.276092 7.4405 0.433339
1 -0.292222 9.38341 0.816701
1 26.7151 7.59593 2.35347
2 26.6584 9.45891 2.70662
1 -0.216423 9.37346 4.56942
2 1.5743 9.36997 5.20626
1 1.62957 7.4435 5.40106
1 1.62851 9.36844 7.03294
2 1.5757 7.47429 7.34781
1 26.7929 7.44237 7.71604
1 1.62751 7.42756 9.27654
2 -0.312118 7.43275 9.65519
1 26.799 9.3661 10.0354
1 26.8032 7.43527 11.5911
2 -0.309287 9.37339 11.9679
1 1.62592 9.37234 12.3358
1 -0.302198 9.36658 13.8998
2 1.63123 9.37619 14.2691
1 1.62538 7.43307 14.6421
1 1.6208 9.38189 16.2067
2 1.62743 7.46885 16.5562
1 -0.295044 7.43905 16.9568
1 1.62265 7.29742 18.5267
2 26.7531 7.42852 18.8766
1 26.8065 9.29003 19.2643
1 -0.307434 7.43532 20.8043
2 -0.306283 9.37167 21.1815
1 1.62956 9.38101 21.567
1 26.8029 9.38259 23.1203
2 1.57566 9.41654 23.4993
1 1.76721 7.43438 23.8634
1 1.63019 9.37094 25.4264
2 1.59135 7.44341 25.8263
1 -0.31329 7.42435 26.1892
1 1.62476 7.43138 27.7459
2 26.7998 11.3085 28.1136
1 26.8031 13.241 0.806745
1 -0.26036 11.2949 2.37639
2 -0.309236 13.2454 2.75973
1 1.61794 13.2428 3.10379
1 -0.313676 13.2384 4.76136
2 1.65931 13.2451 5.02293
1 1.6262 11.2968 5.40055
1 1.44903 13.2426 6.98509
2 1.69844 11.2678 7.34196
1 -0.187377 11.4406 7.74098
1 1.63525 11.3147 9.28449
2 -0.306069 11.2625 9.65383
1 26.7896 13.2302 9.94272
1 26.7878 11.3155 11.5885
2 -0.315412 13.2422 11.9487
1 1.61976 13.2474 12.3567
1 -0.236829 13.2454 13.8855
2 1.62757 13.2451 14.2992
1 1.61883 11.3141 14.6455
1 1.62021 13.2419 16.2178
2 1.62244 11.3051 16.5875
1 -0.303908 11.3101 16.8254
1 1.75603 11.3587 18.5134
1 -0.312004 13.3386 19.266
1 26.8031 11.3088 20.9529
2 26.8059 13.245 21.1829
1 1.63469 13.239 21.5478
1 -0.3011 13.2359 23.1254
2 1.62147 13.2475 23.4951
1 1.6179 11.3186 23.872
1 1.67552 13.274 25.4457
2 1.62752 11.3114 25.805
1 -0.305037 11.3163 26.176
1 1.60955 11.3038 27.7447
2 26.7623 15.1331 0.430872
1 -0.166614 17.1095 0.791973
1 -0.29997 15.1843 2.35202
2 26.7668 17.1213 2.75762
1 1.62484 17.1187 3.01538
1 -0.303025 17.1183 4.67509
2 1.62679 17.1173 5.0134
1 1.62304 15.1798 5.41861
1 1.62464 17.1187 6.97044
2 1.6703 15.2264 7.34753
1 26.8077 15.021 7.71004
1 1.63455 15.1789 9.27791
2 -0.233341 15.1645 9.69057
1 26.6264 17.1246 10.0158
1 26.7921 15.1777 11.5962
2 -0.283248 17.1202 11.9855
1 1.62828 17.1199 12.337
1 26.7956 17.114 13.898
2 1.62331 17.1161 14.274
1 1.62296 15.178 14.6448
1 1.62695 17.1177 16.21
2 1.62804 15.185 16.5782
1 26.8037 15.1756 16.9476
1 1.64647 15.1242 18.5241
2 -0.309126 15.2325 18.8712
1 26.8034 17.1298 19.2649
1 -0.309281 15.1739 20.8097
2 -0.261151 17.0634 21.1932
1 1.63677 17.1111 21.5688
1 -0.30289 17.1247 23.1248
2 1.62423 17.1245 23.5235
1 1.64935 15.187 23.8838
1 1.67746 17.0821 25.5338
2 1.4347 15.1498 25.7472
1 26.7706 15.1885 26.2012
1 1.74528 15.3287 27.6485
2 26.7558 19.1049 0.426569
1 26.8001 21.0007 0.802111
1 -0.305046 19.0541 2.3549
2 -0.311226 20.9933 2.73203
1 1.63345 20.9978 3.11603
1 26.7966 20.993 4.66712
2 1.54901 20.946 5.02969
1 1.62472 19.0504 5.41711
1 1.79639 20.9912 6.98534
2 1.58487 19.0098 7.3478
1 26.8011 19.0523 7.73401
1 1.63376 19.0638 9.2777
2 -0.262915 19.1005 9.66233
1 26.7941 20.989 10.032
1 26.7995 19.0509 11.5899
2 -0.309368 20.9905 11.9668
1 1.62861 21.0029 12.3327
1 -0.313602 21.0014 13.8964
2 1.62519 20.9425 14.2583
1 1.62409 19.0462 14.6444
1 1.62309 20.9974 16.1968
2 1.62637 19.0623 16.5748
1 -0.314128 19.0564 16.9497
1 1.63015 19.0584 18.5089
2 -0.277333 19.0564 18.8647
1 26.7999 20.9839 19.2654
1 26.6607 19.0555 20.8315
2 -0.268435 21.0446 21.1929
1 1.62229 20.9947 21.5625
1 -0.308392 20.9862 23.1211
2 1.61917 20.9946 23.4986
1 1.62208 19.0505 23.8752
1 1.63259 20.9996 25.4311
2 1.6253 19.087 25.7873
1 -0.309635 19.0465 26.181
1 1.62227 18.9155 27.7523
2 -0.303076 22.9324 0.431369
1 -0.310385 24.8679 0.800674
1 26.803 22.9295 2.36344
2 -0.312172 24.8619 2.7346
1 1.62861 24.8636 3.12131
1 26.7979 24.8693 4.67067
2 1.57256 24.9151 5.07013
1 1.76943 22.9334 5.40923
1 1.64448 24.882 7.06351
2 1.53588 22.9391 7.35811
1 26.7774 22.9359 7.72574
1 1.50871 23.0645 9.26966
2 26.7312 22.8851 9.66525
1 -0.141805 24.8613 10.0178
1 -0.315816 22.924 11.591
2 26.7375 24.8174 11.9789
1 1.50994 24.9745 12.0841
1 26.7365 24.8737 13.8951
1 1.62458 22.8388 14.6569
1 1.67599 24.8996 16.3477
2 1.6221 22.9425 16.5691
1 -0.299585 22.9404 16.9538
1 1.62483 22.931 18.5098
2 -0.26794 22.8803 18.8847
1 26.6813 24.8754 19.2438
1 26.801 22.9406 20.8118
2 -0.278984 24.8658 21.2127
1 1.62236 24.8706 21.565
1 -0.307613 24.8707 23.1302
2 1.62363 24.8654 23.5025
1 1.62313 22.9297 23.8701
1 1.63228 24.8592 25.4353
2 1.5782 22.929 25.7956
1 26.7999 22.93 26.1836
1 1.63042 22.9317 27.7329
2 3.51695 26.7274 0.4446
1 3.64619 1.62471 0.704563
1 3.56865 -0.296893 2.3517
2 3.52703 1.62871 2.7439
1 5.51579 1.63057 3.00532
1 3.56204 1.6184 4.66965
2 5.44623 1.58181 5.04371
1 5.50494 26.8043 5.3678
1 5.49816 1.61042 7.08489
2 5.49793 -0.29553 7.20698
1 3.64379 26.8002 7.68316
1 3.7193 1.70962 10.0487
1 3.48133 -0.211717 11.6822
2 3.56714 1.69555 11.9795
1 5.49755 1.61744 12.2436
1 3.56183 1.60621 13.8975
2 5.50001 1.62606 14.2448
1 5.45646 26.7967 14.6552
1 5.44203 1.58349 16.2108
2 5.69712 26.8021 16.5345
1 5.38392 -0.31167 18.4043
2 3.55719 -0.31175 19.031
1 3.56574 1.60649 19.2489
1 3.55776 -0.303724 20.8714
2 3.5594 1.6286 21.2199
1 5.48496 1.62441 21.5625
1 3.55512 1.62595 23.2251
2 5.46769 1.67024 23.4966
1 5.66769 26.8039 23.8825
1 5.36075 1.63131 25.5405
2 5.51225 26.776 25.8314
1 3.57018 -0.17268 26.1802
1 5.56728 -0.12381 27.7694
2 3.52138 3.63768 0.443474
1 3.56434 5.50652 0.807716
1 3.56047 3.55747 2.35717
2 3.61362 5.50168 2.75031
1 5.51022 5.49254 3.10905
1 3.55247 5.51118 4.74529
2 5.47294 5.4935 5.00387
1 5.54983 3.5456 5.42023
1 5.35993 5.50743 6.96545
2 5.50948 3.54874 7.34752
1 3.55831 3.70176 7.72125
1 5.49688 3.4536 9.27957
2 3.50129 3.58763 9.67884
1 3.55716 5.50764 9.94088
1 3.56677 3.57819 11.5912
2 3.55816 5.50031 11.9376
1 5.49268 5.50295 12.3333
1 3.55343 5.49736 13.8927
2 5.46063 5.49241 14.2506
1 5.50336 3.55719 14.6519
1 5.64101 5.49748 16.2128
2 5.44992 3.50569 16.5762
1 3.56101 3.55906 16.9586
1 5.50779 3.56371 18.5068
2 3.6067 3.51011 18.8842
1 3.41974 5.49951 19.25
1 3.5578 3.55359 20.8102
2 3.59914 5.45952 21.1934
1 5.50203 5.50249 21.5712
1 3.56128 5.64151 23.1381
2 5.54671 5.45019 23.4953
1 5.48679 3.55432 23.8793
1 5.49888 5.49856 25.4268
2 5.54299 3.63696 25.7931
1 3.56988 3.41281 26.1829
1 5.55694 3.36899 27.7662
2 3.51555 7.38728 28.09
1 3.6742 9.36981 0.80861
1 3.50436 7.45712 2.36861
2 3.70796 9.30518 2.74373
1 5.54726 9.49716 2.80223
1 3.33803 9.38167 4.54926
1 5.50534 7.34948 5.42357
1 5.49514 9.3803 7.10008
2 5.54703 7.48701 7.34074
1 3.56601 7.29564 7.7048
1 5.48944 7.43547 9.27443
2 3.5594 7.47094 9.67781
1 3.56068 9.3786 10.031
1 3.562 7.43332 11.5942
2 3.55832 9.37478 11.9655
1 5.48586 9.37334 12.338
1 3.56399 9.37781 13.9009
2 5.50085 9.32245 14.2628
1 5.50401 7.42135 14.6502
1 5.49041 9.38308 16.2002
2 5.4491 7.48678 16.5768
1 3.55195 7.4329 16.9636
1 5.50711 7.43322 18.5062
2 3.61263 7.46671 18.9137
1 3.55922 9.32982 19.2655
1 3.55846 7.43119 20.9051
2 3.55666 9.43071 21.1676
1 5.49116 9.37224 21.5685
1 3.56003 9.23586 23.1303
2 5.50973 9.42414 23.4906
1 5.35886 7.44586 23.8698
1 5.64545 9.3742 25.5418
2 5.49057 7.35435 25.8171
1 3.56074 7.44245 26.1004
1 5.49423 7.56481 27.7499
2 3.47939 11.3531 28.1018
1 3.56952 13.2485 0.796481
1 3.68424 11.2763 2.38969
2 3.51162 13.2892 2.73484
1 5.48112 13.1016 3.09628
1 3.56835 13.2347 4.663
2 5.50097 13.3119 5.06161
1 5.50015 11.4329 5.35946
1 5.50145 13.2493 6.98053
2 5.49975 11.3101 7.29276
1 3.57634 11.3015 7.7175
1 5.49338 11.3061 9.27476
2 3.55744 11.3147 9.65783
1 3.56961 13.246 10.0343
1 3.5689 11.3145 11.5949
2 3.55291 13.247 11.971
1 5.49077 13.2459 12.2051
1 3.48269 13.2452 13.8902
1 5.49882 11.2175 14.6515
1 5.49846 13.2476 16.3454
2 5.50071 11.3129 16.5693
1 3.56331 11.3435 16.9732
1 5.46613 11.3794 18.5219
2 3.60739 11.1163 18.8513
1 3.55839 11.4279 20.7125
2 3.56122 13.2479 21.3488
1 5.48886 13.2514 21.5492
1 3.56267 13.2489 23.1849
2 5.50636 13.2415 23.4953
1 5.50824 11.3117 23.8849
1 5.44633 13.2909 25.4482
2 5.44796 11.3998 25.8049
1 3.56374 11.3065 26.1896
1 5.49457 11.1703 27.8439
2 3.6154 15.1406 0.573921
1 3.42327 17.1054 0.774653
1 3.55144 15.1942 2.40797
2 3.59514 17.126 2.75923
1 5.49685 17.1215 3.10982
1 3.55682 17.1181 4.67429
2 5.49744 17.1189 5.04465
1 5.49864 15.1932 5.41623
1 5.50082 17.1079 6.97797
2 5.50146 15.1786 7.35094
1 3.56754 15.1831 7.72086
1 5.48707 15.1806 9.28448
2 3.55965 15.1785 9.6593
1 3.55989 17.1081 10.0327
1 3.56634 15.1782 11.5952
2 3.56777 17.1168 11.9676
1 5.50269 17.1195 12.3459
1 3.55269 17.1123 13.9
2 5.44682 17.1651 14.2745
1 5.50396 15.2767 14.6564
1 5.5044 17.1131 16.2034
2 5.4991 15.1822 16.5797
1 3.56564 15.1479 16.9753
1 5.36603 15.1294 18.5124
2 3.5134 15.3813 18.854
1 3.56726 17.1661 19.2702
1 3.56552 15.0669 20.7135
2 3.56354 17.1016 21.1926
1 5.50064 17.1137 21.5684
1 3.55467 17.1086 23.1272
2 5.45187 17.0799 23.4987
1 5.47235 15.1775 23.8833
1 5.45091 17.0783 25.4395
2 5.69165 15.1843 25.7615
1 5.39606 15.1809 27.6317
2 3.6069 19.1041 0.42755
1 3.57249 21.0063 0.798531
1 3.55498 19.0469 2.35144
2 3.55522 20.9572 2.72882
1 5.48286 20.9966 3.1191
1 3.56495 21.1386 4.77426
2 5.59505 20.9772 5.05709
1 5.50089 19.0461 5.41065
1 5.35663 20.8682 6.95926
2 5.54511 18.983 7.35388
1 3.56242 19.2122 7.71958
1 5.49702 19.0664 9.27935
2 3.56212 18.9978 9.67566
1 3.57243 20.8718 9.97976
1 3.56067 19.0444 11.5975
2 3.5518 20.9679 11.916
1 5.48418 21.0136 12.3276
1 3.55832 21.0142 13.8862
2 5.49601 20.9958 14.2687
1 5.50888 19.0644 14.644
1 5.49766 20.9965 16.2048
2 5.49145 19.0543 16.5775
1 3.5616 19.0567 16.9498
1 5.49314 19.0471 18.515
2 3.56278 19.0678 18.8851
1 3.56791 20.9967 19.2682
1 3.56096 19.0511 20.8247
2 3.51503 20.9429 21.1943
1 5.50302 21.1309 21.5671
1 3.54045 20.9947 23.1226
2 5.38007 21.0047 23.5381
1 5.65113 19.0646 23.8764
1 5.50405 20.9015 25.4244
2 5.46529 18.9936 25.843
1 3.5567 19.0568 26.187
1 5.51048 19.0623 27.7481
2 3.55755 22.9287 0.449081
1 3.57213 24.851 0.796646
1 3.56932 22.9281 2.45403
2 3.55811 24.904 2.71871
1 5.49143 24.8654 3.10857
1 3.56297 24.7415 4.68756
2 5.55238 24.875 5.05049
1 5.37834 22.9312 5.24817
1 5.49226 24.9589 6.97399
1 3.42792 22.842 7.49794
1 5.53545 22.9264 9.35284
1 3.52619 24.8971 9.94416
1 3.55163 22.8472 11.6689
1 5.57392 24.8606 12.352
1 3.62591 24.8744 13.9788
2 5.523 24.8655 14.2714
1 5.48006 22.9418 14.6461
1 5.43066 24.9017 16.2134
2 5.49921 22.934 16.6011
1 3.56046 22.9437 16.941
1 5.4941 22.9317 18.6083
2 3.52501 22.928 18.8585
1 3.56633 24.8777 19.2501
1 3.68968 22.9321 20.8219
2 3.51353 24.9112 21.1908
1 5.48752 24.7248 21.5454
1 3.54055 24.8638 23.1227
2 5.37234 24.8625 23.5298
1 5.6564 22.9265 23.5697
1 5.5053 24.9383 25.4261
1 3.47201 22.9294 26.1918
1 5.49069 22.9288 27.8717
2 7.48639 26.5512 28.0334
1 7.42378 -0.197751 2.22436
2 7.42571 1.53111 2.91849
1 9.37228 1.82379 3.147
1 7.47588 1.82256 4.74465
2 9.29875 1.3588 5.00204
1 9.52195 26.7281 5.43253
1 9.37846 1.77513 6.83206
2 9.2606 -0.195349 7.35248
1 7.30995 26.811 7.84907
1 9.41922 26.657 9.272
2 7.62326 -0.297386 9.70147
1 7.2283 1.57711 9.99711
1 7.40298 26.8004 11.5624
2 7.42288 1.57559 11.9885
1 9.37153 1.76374 12.3267
1 7.4332 1.62593 13.8987
2 9.37052 1.5895 14.2944
1 9.36957 26.8031 14.6443
1 9.38597 1.62252 16.21
2 9.38145 26.8033 16.5865
1 7.48098 26.8024 16.9672
1 9.36322 -0.311066 18.5263
2 7.40663 -0.309887 18.9059
1 7.43644 1.61369 19.2654
1 7.45337 -0.298217 20.9124
2 7.43226 1.67065 21.1995
1 9.37428 1.62441 21.4451
1 7.31897 1.45661 23.1057
1 9.27845 26.7941 23.8936
1 9.37079 1.62562 25.564
2 9.37979 26.7965 25.7907
1 7.44323 -0.295936 26.1088
1 9.3468 -0.257468 27.7387
2 7.43191 3.79744 28.06
1 7.46425 5.53922 0.83379
1 7.55442 3.44411 2.3322
2 7.38939 5.56223 2.72485
1 9.51898 5.24768 3.28884
1 7.44296 5.29708 4.66493
2 9.16337 5.80567 5.03077
1 9.42246 5.3174 6.78647
2 9.37472 3.55723 7.61319
1 7.45176 3.55891 7.61735
1 9.37333 3.55698 9.44714
2 7.43424 3.60979 9.60911
1 7.44214 5.49257 10.0373
1 7.57288 3.55274 11.5901
2 7.38668 5.54725 11.9904
1 9.37162 5.36206 12.3251
1 7.43788 5.49301 13.9779
2 9.41003 5.53777 14.2714
1 9.36967 3.56414 14.5617
1 9.23536 5.49382 16.2172
2 9.36862 3.513 16.541
1 7.42662 3.69953 16.9382
1 9.37365 3.56099 18.4952
2 7.44005 3.5279 18.9018
1 7.43482 5.49938 19.1714
1 7.43786 3.56928 20.8171
2 7.43547 5.4984 21.1649
1 9.36852 5.4965 21.5704
1 7.43172 5.50416 23.1227
2 9.3202 5.57561 23.4955
1 9.49707 3.68994 23.8999
1 9.36829 5.48007 25.4399
2 9.33296 3.55505 25.8279
1 7.43647 3.52182 26.2096
1 9.33972 3.50041 27.8754
2 7.48336 7.37771 0.443679
1 7.29654 9.38046 0.705536
1 7.44557 7.42586 2.36785
2 7.443 9.25913 2.75455
1 9.3616 9.53212 3.108
1 7.52708 9.37684 4.65773
2 9.42765 9.35997 5.10816
1 9.42142 7.50466 5.42696
1 9.36981 9.3769 7.06769
2 9.37191 7.37169 7.33503
1 7.449 7.43526 7.718
1 9.37239 7.57459 9.29712
2 7.38463 7.38594 9.65451
1 7.59499 9.36991 10.0184
1 7.44203 7.44237 11.5849
2 7.37177 9.37118 11.9782
1 9.2475 9.37168 12.2833
1 7.42743 9.37918 13.901
2 9.36557 9.37072 14.2133
1 9.37395 7.44218 14.6495
1 9.39289 9.382 16.199
2 9.41682 7.48685 16.5784
1 7.43537 7.29204 16.9414
1 9.36358 7.44081 18.5066
2 7.4347 7.46841 18.9082
1 7.43686 9.37125 19.2662
1 7.43703 7.43443 20.8259
2 7.43117 9.37688 21.2197
1 9.37654 9.3766 21.5467
1 7.43638 9.37459 23.225
2 9.37521 9.37244 23.4334
1 9.36929 7.45969 23.8954
1 9.38085 9.37578 25.4788
2 9.37675 7.31856 25.8179
1 7.44052 7.58541 26.174
1 9.37968 7.44523 27.7346
2 7.47204 11.3923 28.0726
1 7.43889 13.2536 0.825265
1 7.43524 11.3076 2.41547
2 7.36011 13.3208 2.73773
1 9.36909 13.2414 3.05648
1 7.44374 13.232 4.64334
2 9.36765 13.2464 5.10391
1 9.36334 11.3043 5.32549
1 9.3801 13.2549 6.99154
2 9.37266 11.3418 7.30542
1 7.43388 11.2997 7.71988
1 9.35444 11.1541 9.29543
2 7.38698 11.3602 9.65232
1 7.432 13.2574 10.0418
1 7.43695 11.3032 11.5861
2 7.38778 13.1975 11.9778
1 9.36579 13.3995 12.3397
1 7.53173 13.2493 13.8844
2 9.41866 13.182 14.3033
1 9.38196 11.2938 14.644
1 9.36553 13.2407 16.2197
2 9.3703 11.3092 16.5875
1 7.42976 11.3167 16.9589
1 9.2763 11.3091 18.5026
2 7.38185 11.2615 18.8853
1 7.43456 13.1503 19.2688
1 7.4369 11.3084 20.8172
2 7.43431 13.2447 21.1846
1 9.3722 13.245 21.5594
1 7.43211 13.2539 23.1242
2 9.3715 13.2408 23.4961
1 9.3731 11.2958 23.8988
1 9.37053 13.265 25.4356
2 9.37971 11.4251 25.8395
1 7.42904 11.1612 26.1619
1 9.3708 11.3006 27.818
2 7.37946 15.1851 28.0892
1 7.43374 17.1148 0.800895
1 7.57922 15.1974 2.37014
2 7.39092 17.1703 2.73383
1 9.37153 16.9677 3.09992
1 7.43762 17.117 4.66352
2 9.36788 17.1527 5.06695
1 9.37971 15.1836 5.33112
1 9.38059 17.112 6.9878
2 9.36786 15.1847 7.38554
1 7.4335 15.1823 7.7197
1 9.24944 15.1892 9.32476
2 7.37331 15.1844 9.64507
1 7.4452 17.1154 10.0339
1 7.58817 15.1866 11.6159
2 7.42362 17.1733 11.97
1 9.4105 17.0293 12.1362
1 7.35004 17.11 13.884
1 9.37358 15.0578 14.6057
1 9.48838 17.1072 16.3847
2 9.31819 15.1636 16.5345
1 7.42326 15.1794 16.8182
1 9.46824 15.1806 18.4894
1 7.43671 17.2051 19.2617
1 7.43612 15.1758 20.9509
2 7.43655 17.0789 21.1628
1 9.37062 17.115 21.5699
1 7.43334 17.263 23.1372
2 9.42844 17.0744 23.499
1 9.37576 15.1797 23.8738
1 9.36716 17.1234 25.429
2 9.37956 15.1885 25.8335
1 7.48345 15.182 26.1875
1 9.37254 15.1807 27.8328
2 7.4427 19.0573 28.0866
1 7.43915 21.0036 0.800705
1 7.42896 19.0575 2.35483
2 7.38814 20.9475 2.72953
1 9.37522 21.1374 3.09582
1 7.45841 20.9934 4.65536
2 9.37894 20.957 5.0602
1 9.37009 19.0538 5.41963
1 9.36258 20.9784 6.97791
2 9.36631 19.0553 7.35632
1 7.44564 19.0524 7.72601
1 9.37227 19.0414 9.30076
2 7.43557 19.0572 9.65804
1 7.41772 20.9956 10.0332
1 7.43297 19.0581 11.5918
2 7.38801 20.9442 11.9629
1 9.40078 21.0961 12.3202
1 7.43839 20.9924 13.8896
2 9.33215 21.0098 14.2818
1 9.38534 19.1472 14.6604
1 9.51745 20.9817 16.2996
2 9.25013 18.9889 16.5474
1 7.41488 19.0664 16.9606
1 9.37577 19.1948 18.5144
2 7.38108 19.0608 18.8956
1 7.55609 21.0058 19.2524
1 7.44498 19.0437 20.8933
2 7.43485 20.9418 21.1672
1 9.36269 20.9927 21.49
1 7.44275 21.0084 23.1841
2 9.50669 20.9652 23.4715
1 9.22404 19.0609 23.8616
1 9.40776 21.0169 25.4374
2 9.40344 19.0633 25.8288
1 7.43277 19.0645 26.0897
1 9.37047 19.0547 27.7414
2 7.41235 22.9114 28.0303
1 7.44115 24.7907 0.808867
1 7.57861 22.9267 2.36231
2 7.3841 24.9419 2.72354
1 9.37502 24.7345 3.10494
1 7.43363 24.8763 4.65465
2 9.29088 24.8387 5.07558
1 9.38164 22.931 5.34631
1 9.50121 24.853 7.09947
2 9.40042 22.8324 7.35395
1 7.52119 22.9344 7.71938
1 9.23636 23.0787 9.33038
2 7.35858 22.8811 9.63313
1 7.55431 24.8821 10.0047
1 7.57556 22.932 11.5939
2 7.40259 24.9113 11.9766
1 9.37704 24.7179 12.2099
1 7.44892 24.8648 13.8913
2 9.37001 24.9036 14.2752
1 9.38188 22.9324 14.5607
1 9.36977 24.8773 16.2032
2 9.3294 23.0084 16.5334
1 7.43014 22.9293 16.9508
1 9.36672 22.7793 18.5168
2 7.41891 22.9826 18.8674
1 7.42701 24.8732 19.2657
1 7.30712 22.9323 20.9208
2 7.46726 24.9156 21.1721
1 9.35975 24.8655 21.4524
1 7.30649 24.8805 23.1473
1 9.25901 22.8061 23.908
1 9.40018 24.8362 25.5779
2 9.27522 22.9324 25.7985
1 7.50365 22.9367 26.1328
1 9.4855 22.9372 27.7143
2 11.3006 26.8048 0.448436
1 11.3006 1.63605 0.797715
1 11.3178 26.8012 2.46334
2 11.3581 1.59466 2.67623
1 13.2324 1.61652 3.13607
1 11.2584 1.63611 4.71525
2 13.352 1.64514 5.04723
1 13.0921 26.7944 5.42046
1 13.2318 1.65766 6.95553
2 13.2785 -0.172971 7.36531
1 11.3078 26.6632 7.61712
1 13.2408 26.6109 9.29408
2 11.3155 -0.163321 9.63915
1 11.3066 1.65978 10.0305
1 11.3101 26.8004 11.5797
2 11.3547 1.57143 11.9688
1 13.245 1.62151 12.3434
1 11.3018 1.64088 13.8986
2 13.1962 1.67503 14.2791
1 13.3709 -0.309919 14.6452
1 13.2475 1.53819 16.1897
2 13.207 -0.323047 16.5917
1 11.3081 -0.309691 16.9611
1 13.2507 26.663 18.5265
2 11.2638 -0.26574 18.8873
1 11.2915 1.62508 19.2641
1 11.2993 26.7922 20.8157
2 11.3187 1.57924 21.1954
1 13.2587 1.62391 21.5692
1 11.4235 1.75327 23.1024
2 13.2649 1.59113 23.5152
1 13.3633 26.7875 23.7011
1 13.255 1.71621 25.421
1 11.2225 26.7974 26.2037
1 13.2414 -0.310907 27.8735
2 11.3413 3.55777 28.0652
1 11.2874 5.47597 0.745407
1 11.1948 3.58091 2.50137
2 11.3663 5.56143 2.56186
1 13.1263 5.48823 3.23564
2 13.4909 5.53595 5.08771
1 13.1175 3.62502 5.3921
1 13.2103 5.49479 6.95258
2 13.2769 3.56767 7.3677
1 11.296 3.56477 7.60695
1 13.2484 3.56052 9.28043
2 11.351 3.57185 9.61279
1 11.3043 5.48625 10.0406
1 11.1728 3.55478 11.6096
2 11.3609 5.49945 11.9749
1 13.246 5.49971 12.3481
1 11.315 5.48807 13.8958
2 13.2475 5.50231 14.3309
1 13.2499 3.57076 14.5157
1 13.2474 5.62593 16.2547
1 11.2283 3.56972 16.9662
1 13.2439 3.67692 18.6845
2 11.2915 3.51002 18.9073
1 11.4552 5.48464 19.2403
1 11.3051 3.55722 20.9096
2 11.2722 5.539 21.1892
1 13.2435 5.49381 21.4905
1 11.3086 5.33995 23.1365
2 13.2874 5.53992 23.4729
1 13.078 3.55468 23.8724
1 13.2538 5.50045 25.4237
2 13.2797 3.61157 25.8383
1 11.3008 3.54069 26.0897
1 13.2451 3.5593 27.7479
2 11.3126 7.40816 0.445097
1 11.3105 9.37473 0.722225
1 11.3027 7.43125 2.37541
2 11.3525 9.3278 2.71103
1 13.2448 9.3762 3.11493
1 11.3178 9.3751 4.66107
2 13.2433 9.36166 5.07019
1 13.1923 7.40734 5.40291
1 13.2469 9.36721 7.059
2 13.2424 7.40699 7.32929
1 11.2998 7.4284 7.71993
1 13.2413 7.59633 9.30609
2 11.3071 7.35577 9.64536
1 11.3194 9.36615 9.8166
1 11.3062 7.36363 11.5662
1 13.349 9.37182 12.2814
1 11.3073 9.37081 14.0249
2 13.248 9.37024 14.2147
1 13.2375 7.44483 14.6349
1 13.2295 9.3877 16.1935
2 13.2507 7.50116 16.5584
1 11.3181 7.43153 16.9542
1 13.2444 7.29295 18.5222
2 11.2586 7.43239 18.8731
1 11.31 9.28946 19.2699
1 11.3119 7.44209 20.8045
2 11.314 9.37278 21.2085
1 13.2408 9.38009 21.5597
1 11.3116 9.38066 23.2156
2 13.2801 9.37059 23.4762
1 13.2445 7.44228 23.8764
1 13.1029 9.3733 25.4502
2 13.2386 7.38865 25.7978
1 11.3002 7.58441 26.1667
1 13.2419 7.43231 27.7302
2 11.2967 11.3412 0.439132
1 11.305 13.249 0.814372
1 11.1548 11.3077 2.37761
2 11.4278 13.2472 2.73402
1 13.2732 13.2408 3.10952
1 11.2985 13.2501 4.6559
2 13.2474 13.2516 5.06503
1 13.2472 11.3092 5.40036
1 13.2317 13.2472 7.07361
2 13.2421 11.3053 7.28814
1 11.3164 11.3048 7.73423
1 13.2408 11.3139 9.34942
2 11.2342 11.3078 9.65234
1 11.4396 13.1226 10.0609
1 11.3071 11.3723 11.575
2 11.3194 13.2534 11.9779
1 13.2501 13.2298 12.2425
1 11.3179 13.252 13.8944
2 13.2381 13.2454 14.2464
1 13.2305 11.3046 14.6385
1 13.2424 13.2358 16.2029
2 13.2466 11.309 16.5842
1 11.3085 11.3085 16.8191
1 13.3382 11.309 18.5041
1 11.3074 13.3299 19.27
1 11.3086 11.3058 20.9549
2 11.3091 13.2402 21.1875
1 13.2416 13.2399 21.5634
1 11.3071 13.2373 23.1245
2 13.2426 13.2386 23.4994
1 13.2467 11.3043 23.8788
1 13.2516 13.2395 25.4431
2 13.3032 11.3504 25.8142
1 11.3156 11.1614 26.1777
1 13.1604 11.3106 27.7304
2 11.3402 15.185 28.0937
1 11.3033 17.1165 0.803437
1 11.164 15.182 2.37565
2 11.3524 17.1671 2.73237
1 13.2516 17.1206 3.1058
1 11.3014 17.1128 4.66381
2 13.2142 17.1161 5.01819
1 13.2398 15.1821 5.42439
1 13.4007 17.121 6.98313
2 13.2036 15.1827 7.34905
1 11.3013 15.1813 7.603
1 13.378 15.0563 9.25134
1 11.3045 17.3164 10.1704
1 11.1974 15.1466 11.7643
2 11.3501 16.9613 12.0375
1 13.2224 17.1831 12.3215
1 11.4323 17.1297 13.9261
2 13.3101 17.1165 14.2531
1 13.2343 15.1861 14.6478
1 13.092 17.1206 16.2141
2 13.2894 15.1333 16.5777
1 11.3014 15.3384 16.9425
1 13.2513 15.1795 18.5061
2 11.3547 15.1933 18.9054
1 11.3007 17.1167 19.1728
1 11.3073 15.1839 20.8212
2 11.3033 17.1154 21.1659
1 13.2489 17.1547 21.5751
1 11.3416 17.1683 23.1302
2 13.2124 16.9241 23.4369
1 13.2532 15.1423 23.891
1 13.3795 17.24 25.3352
2 13.1962 15.1401 25.8023
1 11.3034 15.189 26.176
1 13.2481 15.1862 27.7269
2 11.3 19.0543 28.1166
1 11.3065 21.0065 0.788794
1 11.3129 19.0586 2.36013
2 11.3575 20.9425 2.73503
1 13.2519 20.9912 3.11177
1 11.3111 20.9968 4.66678
2 13.2489 20.9969 5.06569
1 13.2485 19.0546 5.40793
1 13.2383 20.9754 7.07016
2 13.1758 19.0661 7.31688
1 11.2991 19.058 7.66545
1 13.2157 19.2293 9.31291
2 11.2593 19.0235 9.48728
1 11.4518 20.7335 10.1972
2 11.3339 21.1572 12.0256
1 13.217 20.9399 12.2381
1 11.3038 20.9715 13.9629
2 13.2793 20.99 14.2199
1 13.2198 19.0568 14.6504
1 13.1167 20.9888 16.2097
2 13.362 19.0526 16.5678
1 11.3049 19.0535 16.8954
1 13.2413 19.0637 18.4952
2 11.3594 19.0104 18.9431
1 11.1674 20.9874 19.1524
1 11.3127 19.0661 20.8309
2 11.2953 21.0013 21.1935
1 13.1614 20.9726 21.5834
1 11.3719 20.9396 23.1337
2 13.2666 21.1919 23.4479
1 13.2185 20.9189 25.3418
2 13.1983 19.1118 25.9532
1 11.3149 19.0637 26.1696
1 13.2431 19.0495 27.7884
2 11.359 22.9267 0.559994
1 11.3046 24.8591 0.782672
1 11.1663 22.9297 2.4123
2 11.3538 24.8802 2.71887
1 13.2468 24.8768 3.10112
1 11.3116 25.0128 4.77981
2 13.2873 24.8188 4.98481
1 13.2479 22.9433 5.43541
1 13.2389 24.8627 7.1077
2 13.23 22.8273 7.3314
1 11.3209 23.0408 7.57305
1 13.3782 22.9506 9.28801
1 11.3054 25.0078 9.93131
1 11.2006 22.9866 11.7366
2 11.3566 24.9085 11.9826
1 13.2541 24.8755 12.2407
1 11.2969 24.8589 13.8942
2 13.192 24.8234 14.2743
1 13.2361 22.9224 14.6374
1 13.2521 24.8654 16.2812
2 13.2961 22.9416 16.5516
1 11.3107 22.7796 16.9466
1 13.2505 23.068 18.5234
2 11.3019 22.9664 18.9016
1 11.4479 24.8764 19.2516
1 11.3096 22.9254 20.8145
2 11.27 24.8663 21.229
1 13.2442 24.8635 21.4933
1 11.3892 24.8612 23.1271
2 13.2446 24.8577 23.4963
1 13.2138 22.9766 23.8966
1 13.2047 24.7381 25.4338
2 13.3833 22.8588 25.7578
1 13.1419 22.9254 27.6177
2 15.1788 -0.313865 28.056
1 15.173 1.61948 0.799323
1 15.1719 26.8021 2.35091
2 15.1799 1.62355 2.73311
1 17.1041 1.62246 3.11021
1 15.1976 1.62622 4.67223
2 17.1209 1.627 5.04492
1 17.1149 26.796 5.42539
1 17.1198 1.63532 6.97946
2 17.1645 -0.234926 7.3491
1 15.1908 26.6505 7.72074
1 17.12 26.6673 9.40313
2 15.1475 -0.183063 9.65862
1 15.1842 1.64341 10.0332
1 15.3462 26.792 11.6738
2 15.1131 1.70697 11.9455
1 16.9844 1.5138 12.3555
1 15.1678 1.48109 13.9145
2 17.1523 1.71974 14.2274
1 16.9877 -0.308815 14.5311
1 17.2339 1.61761 16.2
2 17.101 26.7561 16.5878
1 15.1736 26.8039 16.8655
1 17.1168 -0.30773 18.5106
2 15.2281 -0.268086 18.8867
1 15.19 1.61832 19.2546
1 15.1761 -0.305774 20.8927
2 15.1793 1.66418 21.1741
1 17.1127 1.62096 21.5719
1 15.1881 1.47494 23.1447
2 17.1691 1.67453 23.5019
1 16.9708 26.7984 23.876
1 17.1092 1.62191 25.4267
2 17.1825 -0.265432 25.8351
1 15.3082 26.799 26.13
1 17.1178 26.8003 27.7487
2 15.1835 3.5556 0.431459
1 15.1682 5.48683 0.80587
1 15.1759 3.56396 2.3651
2 15.1629 5.49478 2.73859
1 17.1164 5.49851 3.1016
1 15.2503 5.50282 4.65789
2 17.1374 5.49595 5.03932
1 17.1211 3.5602 5.41434
1 17.1158 5.48777 6.97637
2 17.1199 3.56398 7.35025
1 15.186 3.56453 7.72197
1 17.1241 3.55464 9.2858
2 15.1918 3.56455 9.6562
1 15.1899 5.48366 10.035
1 15.1726 3.57403 11.594
2 15.1341 5.45714 11.9677
1 17.1189 5.6227 12.3282
1 15.1836 5.49853 13.8965
2 17.1195 5.46549 14.2945
1 17.1294 3.56974 14.6579
1 17.1152 5.51006 16.212
2 17.1175 3.61203 16.573
1 15.2583 3.56785 16.9613
1 17.1125 3.55387 18.4996
2 15.1972 3.50652 18.878
1 15.0368 5.49538 19.2391
1 15.1785 3.57022 20.8125
2 15.2183 5.4935 21.2115
1 17.1267 5.50451 21.57
1 15.1891 5.51005 23.1334
2 17.1231 5.49962 23.5096
1 17.1237 3.57108 23.8819
1 17.1207 5.40642 25.4286
2 17.1171 3.51286 25.8166
1 15.1863 3.56295 26.1797
1 17.1052 3.56252 27.7408
2 15.1684 7.36534 28.1043
1 15.3395 9.2483 0.813251
1 15.1776 7.41855 2.36882
2 15.1396 9.36591 2.72527
1 17.1207 9.39087 3.02006
1 15.1788 9.37663 4.66722
2 17.087 9.36487 5.00268
1 17.1266 7.44653 5.42617
1 17.2598 9.37824 7.09404
2 17.0791 7.35646 7.35011
1 15.1812 7.44075 7.72887
1 17.1127 7.58433 9.38658
2 15.1485 7.3244 9.63117
1 15.1634 9.38283 9.98585
1 15.3263 7.44744 11.584
2 15.1747 9.42333 12.0167
1 17.1296 9.24204 12.2173
1 15.1995 9.36958 13.9036
2 17.1202 9.41661 14.2824
1 17.1218 7.43905 14.5461
1 17.1248 9.36984 16.2033
2 17.0689 7.43565 16.5372
1 15.1723 7.42372 16.9592
1 17.1304 7.43867 18.4954
2 15.2386 7.48495 18.888
1 15.1788 9.38075 19.2593
1 15.1801 7.43124 20.8164
2 15.1842 9.37494 21.1938
1 17.1179 9.36261 21.5771
1 15.1915 9.36528 23.1293
2 17.1196 9.37192 23.5632
1 17.1194 7.43575 23.7466
1 17.1193 9.50983 25.49
1 15.1026 7.43982 26.1877
1 17.1205 7.57995 27.913
1 15.183 13.3175 0.809794
1 15.1892 11.3049 2.48792
2 15.1897 13.2447 2.73054
1 17.123 13.2337 3.09821
1 15.1788 13.235 4.671
2 17.0821 13.2543 5.01324
1 17.1325 11.3007 5.42232
1 17.2733 13.2385 6.99029
2 16.9955 11.3432 7.3175
1 15.1567 11.2955 7.7525
1 17.1719 11.2112 9.29474
2 15.2567 11.3836 9.65717
1 15.0192 13.2568 10.0231
1 15.1802 11.3078 11.5677
2 15.2382 13.2414 11.9914
1 17.2367 13.2465 12.4296
1 15.1363 13.2465 13.8907
2 16.9258 13.2462 14.3088
1 17.1727 11.348 14.631
1 17.146 13.2461 16.1866
2 17.1119 11.308 16.5812
1 15.1824 11.3115 16.9591
1 17.1293 11.3105 18.5137
2 15.2304 11.3114 18.897
1 15.1744 13.2453 19.2575
1 15.1804 11.3098 20.8213
2 15.1804 13.2444 21.1935
1 17.1114 13.2428 21.5655
1 15.1814 13.2433 23.1287
2 17.1156 13.2472 23.4946
1 17.1209 11.3146 23.8728
1 17.124 13.2425 25.4286
2 17.1191 11.3748 25.8131
1 15.1896 11.2996 26.0538
1 17.1197 11.2195 27.7163
2 15.1364 15.1548 0.432544
1 15.3323 17.1283 0.69292
1 15.1901 15.1896 2.34742
2 15.1506 17.1109 2.77183
1 17.1143 17.1284 3.01546
1 15.1924 17.1292 4.76197
2 17.159 17.1131 5.02159
1 17.1227 15.1718 5.41994
1 16.9897 16.9995 6.95067
2 17.1224 15.1522 7.35606
1 15.1924 15.3497 7.71449
1 17.1485 15.1203 9.29195
2 15.2588 15.2009 9.68903
1 15.2086 17.1271 9.93788
1 15.1832 15.1801 11.5977
2 15.1671 17.1194 11.9388
1 17.1172 17.1171 12.3288
1 15.1934 17.1159 13.8906
2 17.123 17.1126 14.2697
1 17.1745 15.1447 14.6293
1 17.1157 17.1085 16.2004
2 17.1181 15.1829 16.5754
1 15.1893 15.1794 16.9482
1 17.1139 15.1829 18.5087
2 15.1837 15.1899 18.8882
1 15.1832 17.1234 19.2724
1 15.1786 15.1765 20.8242
2 15.1828 17.0699 21.2286
1 17.1035 17.1274 21.5705
1 15.1452 17.1757 23.2364
2 17.1487 17.1247 23.4945
1 17.1073 15.1961 23.8775
1 16.9829 17.1102 25.5386
2 17.1638 15.1039 25.7912
1 15.1733 15.3314 26.1696
1 17.1186 15.3252 27.7545
2 15.1425 19.1392 0.445607
1 15.1809 21.0159 0.79693