1682
Atoms. Timestep: 1135
2 26.9421 26.8213 0.496687
1 26.8606 1.56028 0.630348
1 -0.263368 -0.429648 2.4644
2 26.8904 1.54589 2.78834
1 1.35505 1.38594 3.04215
1 26.8539 1.32587 4.74414
2 1.47449 1.39658 4.95289
1 1.4496 26.8962 5.28232
1 1.68257 1.66956 6.84568
2 1.46475 26.868 7.37074
1 26.9275 26.9492 7.26615
1 1.64425 -0.426672 9.25747
1 26.9264 1.65315 10.0334
1 26.9181 -0.308359 11.8617
2 26.9428 1.58688 11.9448
1 1.51079 1.46617 12.3685
1 -0.343398 1.28879 13.95
2 1.5598 1.81568 14.2364
1 1.51106 1.36968 16.1281
2 1.60652 26.8757 16.7591
1 -0.254529 -0.436794 16.8781
1 1.53694 -0.298657 18.6095
2 26.8785 26.8696 18.8025
1 -0.288112 1.50231 19.2369
1 -0.394591 26.9142 20.8164
2 26.9054 1.50015 21.2508
1 1.50552 1.52673 21.4663
1 26.9269 1.53894 23.294
2 1.51157 1.56849 23.484
1 1.68422 26.9208 23.8108
1 1.34259 1.37343 25.4955
2 1.6075 26.9129 25.8367
1 -0.393271 -0.46293 26.1134
1 1.50647 -0.265638 27.8869
2 -0.121427 3.66198 0.489761
1 26.7486 5.42645 0.558747
1 26.8605 3.34398 2.28649
1 1.61528 5.41027 2.9808
1 26.8338 5.37131 4.81553
1 1.53285 5.35797 7.0963
2 1.46338 3.51945 7.50524
1 26.9383 3.47376 7.70763
1 1.53842 3.50276 9.35747
2 -0.375588 3.53587 9.66206
1 -0.432441 5.43568 10.0364
1 -0.370196 3.52245 11.6162
2 26.696 5.41914 11.9119
1 -0.288852 5.44264 13.7665
2 1.50998 5.48982 14.4754
1 1.53018 3.58656 14.649
1 1.51693 5.31525 16.3114
2 1.51821 3.40825 16.5625
1 -0.416514 3.45473 16.9348
1 1.50832 3.29283 18.5165
2 26.9 3.52245 18.8787
1 -0.439141 5.4159 19.2415
1 -0.430973 3.45749 20.815
2 26.8606 5.40432 21.1887
1 1.38833 5.42294 21.5726
1 -0.44678 5.41631 23.1424
2 1.51168 5.4277 23.5083
1 1.50793 3.46677 23.682
1 1.49495 5.41446 25.4015
1 26.7712 3.2936 26.3751
1 1.63624 3.33736 27.9527
2 -0.37049 7.40646 0.435646
1 -0.436297 9.33322 0.795135
1 26.9112 7.50448 2.35096
2 -0.399761 9.36708 2.75911
1 1.54627 9.34695 3.12097
1 -0.311064 9.34825 4.67206
2 1.53385 9.34158 5.05258
1 1.53223 7.49013 5.44769
1 1.55172 9.35985 6.98327
2 1.59617 7.35324 7.33185
1 -0.30345 7.37304 7.72407
1 1.43144 7.36698 9.2757
2 26.9017 7.38966 9.65366
1 26.9152 9.33222 10.0466
1 -0.375261 7.33398 11.6163
2 -0.429286 9.31849 12.0072
1 1.52013 9.26729 12.3323
1 26.9193 9.3378 14.0383
2 1.5609 9.32907 14.2806
1 1.5149 7.38153 14.4256
1 1.3444 9.47358 16.1736
1 26.9293 7.53422 17.0085
1 1.51462 7.40149 18.7121
2 -0.434775 7.32582 18.884
1 26.9187 9.45888 19.2736
1 -0.432856 7.31005 20.8001
2 -0.437724 9.10198 21.1976
1 1.47056 9.38466 21.5361
1 -0.436249 9.3528 23.0944
2 1.51422 9.3298 23.4948
1 1.51221 7.38508 23.6588
1 1.52342 9.46922 25.4098
1 26.8003 7.38864 26.184
1 1.52876 7.37072 27.9196
2 26.8612 11.2975 0.458998
1 26.9344 13.4153 0.994648
1 26.915 11.2124 2.3678
2 -0.408412 12.9634 2.81916
1 1.42901 13.291 3.24157
1 26.8342 13.2993 4.67178
2 1.2386 13.2414 5.11273
1 1.70674 11.3688 5.37947
1 1.54913 13.2429 6.96855
2 1.49249 11.3016 7.3781
1 26.9451 11.2921 7.72114
1 1.55196 11.2538 9.29804
2 -0.43361 11.2886 9.672
1 26.9197 13.2391 10.0304
1 26.934 11.2832 11.6144
2 26.9261 13.2494 11.9723
1 1.50705 13.2395 12.3271
1 -0.32257 13.2502 13.8833
2 1.56136 13.1984 14.2749
1 1.5459 11.2927 14.6093
1 1.50971 13.2546 16.2179
2 1.61187 11.3697 16.5684
1 -0.291025 11.1036 16.8934
1 1.50529 11.3032 18.5318
2 26.9147 11.3372 18.7032
1 26.9199 13.1163 19.3724
2 -0.369073 13.4892 21.2314
1 1.48369 13.1918 21.548
1 26.9401 13.223 23.1072
2 1.52112 13.2351 23.4977
1 1.51685 11.2962 23.8528
1 1.5245 13.2607 25.4341
2 1.52374 11.3552 25.8068
1 -0.445803 11.3078 26.1774
1 1.37686 11.3129 27.7197
2 -0.403059 15.1695 27.9057
1 26.9217 16.9358 0.868965
1 1.55829 17.1595 3.07708
1 26.8257 17.1485 4.79756
1 1.62358 15.0645 5.40751
1 1.54272 17.1532 7.34707
2 1.58938 15.2052 7.31298
1 -0.317739 15.2381 7.7329
1 1.53209 15.3412 9.29942
2 26.8756 15.1314 9.64592
1 -0.300022 17.1414 9.95851
1 26.9242 15.2141 11.6027
2 26.9319 17.1612 11.8355
1 1.45401 17.1628 12.033
1 1.4646 15.0929 14.6485
1 1.49416 17.0424 16.3198
2 1.50707 15.1724 16.5727
1 26.8805 15.2648 16.9397
1 1.50742 15.1904 18.5097
2 -0.382348 15.1234 18.8699
1 26.8008 17.1354 19.2008
1 26.9118 15.2652 20.7834
2 -0.329233 17.1003 21.196
1 1.54377 17.1435 21.5625
1 26.9067 17.159 23.1129
2 1.51863 17.1516 23.4959
1 1.5141 15.1956 23.8431
1 1.53273 17.1298 25.4351
2 1.54235 15.1923 25.7902
1 26.9161 15.2178 26.0783
1 1.51603 15.2216 27.748
1 -0.441399 21.167 0.817847
2 26.9252 21.2086 2.724
1 1.46504 21.012 3.09016
1 26.9236 21.0141 4.65589
2 1.52128 21.1141 5.03622
1 1.55433 19.2123 5.42728
1 1.48846 21.0606 6.98873
2 1.50578 19.1066 7.32925
1 26.8874 19.049 7.71461
1 1.5043 18.9652 9.31419
2 26.8768 19.0944 9.64867
1 -0.411493 20.936 10.0558
1 -0.372758 19.1136 11.6142
2 26.7667 21.0235 11.9225
1 -0.0999259 21.0479 13.7022
2 1.59563 21.0392 14.464
1 1.48209 19.1905 14.4804
1 1.51258 21.1922 16.3029
1 26.7169 19.0198 16.9738
1 1.54917 19.1195 18.6965
2 -0.33028 19.1502 18.8634
1 26.9086 21.0655 19.0575
1 26.7811 18.95 20.7592
1 1.69218 21.1405 21.5516
1 -0.423198 21.0611 23.483
2 1.51275 21.0539 23.479
1 1.53371 19.0826 23.8308
1 1.37304 20.9304 25.4116
2 1.56319 19.0249 25.803
1 -0.356043 19.2865 25.9546
1 1.65 19.1116 27.7356
2 -0.416056 23.0315 0.49549
1 -0.425413 24.9558 0.68931
1 26.9249 23.0597 2.4128
2 26.8693 24.9191 2.71603
1 1.49491 25.1366 3.12526
1 26.8368 25.1906 4.71305
2 1.57323 24.8879 5.07622
1 1.49303 23.0154 5.4183
1 1.48931 24.9678 6.99495
2 1.55393 22.9983 7.36817
1 -0.335371 23.0339 7.59884
1 1.63449 23.0216 9.28386
1 26.8752 24.9917 9.91935
1 -0.378724 22.8667 11.7541
1 1.51625 25.0011 12.3822
1 -0.348922 25.1735 14.1301
2 1.53753 24.6694 14.1859
1 1.53283 22.9166 14.6367
1 1.52049 25.1272 16.0358
2 1.5018 23.1244 16.5732
1 26.9405 23.0298 16.9455
1 1.51182 23.0489 18.5245
2 26.9258 23.0131 18.897
1 -0.425375 24.983 19.2585
1 -0.353771 23.2084 20.8211
2 26.7247 25.0579 21.1728
1 -0.305101 24.9688 23.0801
2 1.53492 24.9066 23.6394
1 1.51123 23.0197 23.6449
1 1.34791 25.1025 25.4672
1 26.7668 23.0126 26.1591
1 1.44637 23.0088 27.8751
2 3.58866 26.8957 28.0718
1 3.34431 1.49689 0.584935
1 3.33672 26.753 2.31566
1 5.5293 1.50401 3.00361
1 3.30754 1.58192 4.93925
1 5.41117 26.8028 5.44794
1 5.29089 1.53524 7.20893
2 5.42224 -0.387368 7.34755
1 3.44598 -0.268719 7.69935
1 5.44275 -0.454882 9.28563
2 3.54123 26.8814 9.70214
1 3.47609 1.5124 9.89798
1 3.46715 -0.302307 11.5858
2 3.45829 1.54987 11.9402
1 5.41265 1.52432 12.3317
1 3.42963 1.46254 13.9149
2 5.38173 1.50531 14.2564
1 5.42989 26.9191 14.6453
1 5.59277 1.51825 16.2221
2 5.37089 26.8777 16.5758
1 3.47626 26.9112 16.984
1 5.42616 -0.458657 18.5138
2 3.5431 26.844 18.9826
1 3.32184 1.52037 19.2368
1 3.43154 -0.321927 20.8964
2 3.51222 1.52899 21.1946
1 5.43595 1.50992 21.5592
1 3.46487 1.35957 23.1332
2 5.44416 1.51785 23.4848
1 5.24578 26.9146 23.831
1 5.43694 1.52718 25.4072
2 5.40611 -0.377467 25.8053
1 3.48395 -0.448077 26.0784
1 5.45019 26.9231 27.7319
2 3.53309 3.4927 0.459307
1 3.47384 5.42769 0.807665
1 3.46406 3.60437 2.38126
2 3.51057 5.49688 2.78816
1 5.4379 5.42504 2.92267
1 3.45248 5.37905 4.66747
1 5.42999 3.46307 5.47725
1 5.44284 5.43308 7.21802
2 5.52043 3.49527 7.35542
1 3.44584 3.34023 7.69509
1 5.2711 3.50704 9.27172
2 3.41912 3.50869 9.68646
1 3.53047 5.70949 10.2455
1 3.39795 3.40108 11.5841
2 3.71299 5.11248 11.9793
1 5.43998 5.66637 12.3158
1 3.29588 5.50397 13.7125
2 5.42171 5.39419 14.2939
1 5.38565 3.47931 14.6208
1 5.39619 5.44969 16.195
2 5.4078 3.53246 16.5732
1 3.45518 3.46541 16.9425
1 5.31307 3.45907 18.4881
2 3.45596 3.54213 18.8981
1 3.46446 5.44612 19.0512
1 3.46912 3.36399 20.7967
1 5.51705 5.43411 21.5388
1 3.44622 5.42185 23.3271
2 5.33382 5.49029 23.4675
1 5.60609 3.47389 23.8356
1 5.41007 5.41549 25.4175
2 5.46638 3.46999 25.8006
1 3.59467 3.47317 26.1685
1 5.44844 3.47437 27.7305
2 3.47296 7.31511 28.0771
1 3.47456 9.20899 0.812496
1 3.45759 7.37589 2.38463
2 3.47474 9.28913 2.71518
1 5.4178 9.37744 3.12138
1 3.50257 9.42645 4.70068
2 5.49211 9.34688 5.03145
1 5.42846 7.48187 5.31488
1 5.42717 9.27954 6.95243
2 5.43138 7.33575 7.14155
1 3.60538 7.36328 7.74322
2 3.20922 7.39581 9.50945
1 3.58906 9.07259 10.2068
2 3.33757 9.59359 12.0009
1 5.39554 9.32238 12.283
1 3.4967 9.29248 13.8482
2 5.4082 9.34137 14.3545
1 5.42388 7.3793 14.4403
1 5.42646 9.33445 16.2296
2 5.49479 7.38579 16.5249
1 3.60201 7.38535 16.9462
1 5.43633 7.38145 18.501
2 3.46658 7.38705 18.8764
1 3.4713 9.34312 19.2496
1 3.47037 7.52463 20.8055
2 3.46221 9.4134 21.1945
1 5.45348 9.40066 21.5565
1 3.47184 9.34208 23.1224
2 5.39369 9.35485 23.4751
1 5.41368 7.39508 23.8426
1 5.6118 9.2874 25.4261
2 5.46197 7.31347 25.7785
1 3.59499 7.37369 26.1687
1 5.44236 7.38153 27.7226
1 3.4969 13.355 0.687018
1 3.52957 11.2148 2.75998
2 5.67721 13.3132 5.09585
1 5.17151 11.5897 5.51879
2 5.45122 11.0438 7.46398
1 3.53523 11.3435 7.61759
1 5.45638 11.2297 9.38772
2 3.46273 11.288 9.60646
1 3.4809 13.2332 10.0081
1 3.66944 11.3487 11.5793
2 3.3872 13.3172 11.9534
1 5.27657 13.084 12.3733
1 3.44596 13.2593 13.9191
2 5.33795 13.2253 14.2884
1 5.42729 11.2767 14.4911
1 5.43935 13.2342 16.201
2 5.43679 11.2899 16.5543
1 3.4905 11.2991 16.9449
1 5.30945 11.2881 18.4986
2 3.4105 11.2836 18.894
1 3.46468 13.2468 19.2361
1 3.4713 11.3059 20.8204
2 3.392 13.2432 21.1666
1 5.31267 13.2081 21.4704
1 3.48348 13.2505 23.1146
2 5.44154 13.2517 23.3023
1 5.42371 11.4444 23.9918
2 5.30252 11.0887 25.8558
1 3.47278 11.3565 25.9608
1 5.51509 11.3247 27.7236
2 3.46933 15.2453 0.497093
1 3.47081 17.1623 0.63065
1 3.535 15.1665 2.38528
1 5.50706 17.1262 3.23522
2 5.57217 17.1436 5.09468
1 5.3062 15.0463 5.52161
1 5.39312 17.2185 6.94979
2 5.40972 15.4481 7.41555
1 3.52713 15.137 7.71079
1 5.42788 15.1747 9.2944
2 3.52451 15.1414 9.65638
1 3.31806 17.1501 10.0142
1 3.45387 15.2074 11.5868
2 3.44015 17.0987 12.0119
1 5.44185 17.1551 12.3599
1 3.57469 17.1415 13.9044
2 5.42748 17.2086 14.2804
1 5.63217 15.1881 14.6189
1 5.61901 17.158 16.2226
2 5.34708 15.1549 16.5806
1 3.45492 15.2198 16.9325
1 5.42841 15.2019 18.497
2 3.46842 15.1959 18.8788
1 3.46485 17.1437 19.2312
1 3.47097 15.1914 20.8172
2 3.47973 17.1359 21.1802
1 5.42206 17.1288 21.5624
1 3.48784 17.1424 23.1308
2 5.43495 17.1502 23.492
1 5.43551 15.0436 24.0015
1 5.43171 17.2119 25.4073
2 5.41496 15.4367 25.855
1 3.52133 15.1251 26.1749
1 5.45909 15.2183 27.7408
2 3.55684 19.1075 0.472314
1 3.53408 21.1129 0.784434
1 3.46088 19.2395 2.36728
2 3.40292 21.1165 2.74394
1 5.3062 21.0668 3.14141
1 3.46217 21.0731 4.68321
2 5.4317 21.056 5.0727
1 5.38142 19.091 5.39178
1 5.43982 21.0591 7.08241
2 5.42518 19.0984 7.33911
1 3.46721 19.1019 7.7326
1 5.42774 19.2768 9.32641
2 3.45754 19.1469 9.66477
1 3.60465 21.0763 9.85004
1 3.43187 18.9926 11.5767
1 5.43724 21.0726 12.293
1 3.41342 21.0463 14.0003
2 5.4201 21.0695 14.2012
1 5.41656 19.1237 14.6222
1 5.40776 21.0896 16.1892
2 5.40414 19.1856 16.5462
1 3.57577 19.1159 16.9657
1 5.40798 19.1308 18.5147
2 3.47668 19.1199 18.879
1 3.47417 21.2067 19.3854
1 3.46952 19.041 20.8012
2 3.5466 20.8293 21.2293
1 5.39942 21.1214 21.5428
1 3.4638 21.0771 23.1095
2 5.35809 21.0494 23.4985
1 5.42084 19.119 23.8397
1 5.44195 20.9491 25.4181
2 5.42688 19.0699 25.804
1 3.49028 19.1086 26.1758
1 5.48553 19.0487 27.7497
2 3.26455 23.0107 28.105
1 3.52447 24.9056 0.764349
1 3.48826 23.0137 2.35819
2 3.53402 24.8869 2.74157
1 5.44349 24.9546 3.12953
1 3.47148 24.9659 4.6745
2 5.39875 24.916 5.03088
1 5.43979 23.0047 5.42106
1 5.53436 24.9681 6.99583
2 5.36723 23.0011 7.3372
1 3.48284 23.0276 7.72678
1 5.45446 22.8614 9.32003
2 3.47739 23.0534 9.69208
1 3.48346 24.9717 9.84276
1 3.42657 22.9797 11.5671
1 5.45299 24.9678 12.3767
1 3.42872 25.0356 14.1142
2 5.40929 24.9751 14.2699
1 5.43831 23.024 14.6101
1 5.44385 24.9624 16.205
2 5.43866 23.0178 16.5703
1 3.45207 23.0416 16.8807
1 5.28219 23.0227 18.4977
2 3.40493 23.01 18.7451
1 3.43646 24.8842 19.1786
1 5.53448 24.9494 21.5714
1 3.38268 25.089 23.2298
2 5.36065 24.9253 23.4813
1 5.54361 23.0089 23.6351
1 5.42819 25.0897 25.3972
1 3.57351 23.0202 26.2779
2 7.34802 -0.373464 28.1025
1 7.35223 1.53813 0.81338
1 7.35348 -0.422299 2.39568
2 7.41252 1.51598 2.75498
1 9.34432 1.48031 3.05799
1 7.59788 1.44988 4.70396
2 9.4119 1.76659 4.87088
1 7.33714 26.7659 7.69698
1 9.34011 26.9108 9.43398
2 7.39213 -0.453608 9.63876
1 7.38224 1.39652 10.0513
1 7.4493 26.9004 11.593
2 7.31675 1.51098 11.9799
1 9.20069 1.52668 12.3511
1 7.37262 1.52222 14.0011
2 9.37438 1.51194 14.247
1 9.34257 26.9184 14.6357
1 9.17804 1.51583 16.2273
2 9.37865 26.8881 16.5723
1 7.38494 -0.278746 16.9333
1 9.35061 -0.433425 18.5071
2 7.3862 26.9042 18.8793
1 7.38045 1.38509 19.1624
1 7.37903 26.9219 20.819
2 7.39321 1.5256 21.082
1 9.37907 1.44839 21.5359
1 7.39576 1.68812 23.1314
2 9.38349 1.42532 23.4957
1 9.33383 26.9158 23.6809
1 9.35284 1.59952 25.439
1 7.27179 26.9279 26.1702
1 9.22935 26.7907 27.9552
2 7.38321 3.47309 28.0687
1 7.40458 5.42483 0.816658
1 7.37315 3.47235 2.4001
2 7.38502 5.42733 2.7554
1 9.48835 5.41392 3.28008
1 7.42153 5.40972 4.65491
2 9.1778 5.41672 5.1398
1 9.37398 3.4637 5.55303
1 9.33288 5.51209 7.00768
2 9.33023 3.71062 7.43708
1 7.44326 3.41822 7.51142
1 9.49997 3.5274 9.28929
1 7.29728 5.49594 10.0698
1 7.36106 3.45475 11.8015
2 7.42124 5.34247 11.9484
1 9.30687 5.47329 12.3192
1 7.36421 5.44714 13.8701
2 9.32146 5.42344 14.2832
1 9.347 3.47389 14.6288
1 9.34024 5.44687 16.2135
2 9.34906 3.54393 16.5727
1 7.38144 3.35315 16.7179
1 9.47013 3.44455 18.4922
1 7.3914 5.53108 19.2464
1 7.39951 3.469 21.2031
2 7.43732 5.42286 21.1658
1 9.34965 5.42785 21.3689
1 7.22098 5.29947 23.0921
1 9.2021 3.30515 23.8919
1 9.33013 5.42028 25.6105
2 9.39166 3.51789 25.7955
1 7.40228 3.47319 26.0365
1 9.31943 3.46621 27.7294
2 7.38808 7.35589 0.465991
1 7.38552 9.352 0.695614
1 7.38906 7.38247 2.38337
2 7.31021 9.34282 2.70098
1 9.20175 9.34563 3.11338
1 7.37948 9.34576 4.68489
2 9.33978 9.33275 5.04142
1 9.38435 7.35292 5.41014
1 9.32695 9.32989 7.00595
2 9.33232 7.40701 7.34899
1 7.21511 7.42699 7.88734
1 9.4361 7.40239 9.31199
2 7.67666 7.20123 9.6387
1 7.18237 7.57455 11.3978
2 7.4666 9.29615 12.1363
1 9.28967 9.37169 12.3495
1 7.34112 9.31105 13.963
2 9.33784 9.27966 14.2702
1 9.358 7.38321 14.6085
1 9.36494 9.33381 16.1913
2 9.33719 7.39331 16.5693
1 7.39852 7.39043 16.9367
1 9.36985 7.43263 18.5242
2 7.37967 7.41582 18.8537
1 7.37489 9.29077 19.359
1 7.38281 7.33733 20.8011
2 7.31238 9.14792 21.258
1 9.15127 9.41109 21.5565
1 7.36883 9.37512 23.2196
2 9.38375 9.39395 23.4673
1 9.34048 7.47865 23.8391
1 9.1968 9.18365 25.3835
2 9.39019 7.301 25.7794
1 7.40432 7.56336 26.1569
1 9.37808 7.42082 27.745
2 7.44658 11.3109 0.453612
1 7.36273 13.1806 0.835769
1 7.33363 11.3213 2.40286
2 7.63159 13.2664 2.67973
1 9.41717 13.2406 3.11407
1 7.36878 13.2743 4.53839
2 9.34414 13.2389 5.04907
1 9.32242 11.2968 5.42236
1 9.37337 13.284 6.9995
2 9.33236 11.3025 7.34359
1 7.33439 11.3556 7.72795
1 9.31977 11.2229 9.29836
2 7.43352 11.5279 9.61575
1 7.41131 13.3362 9.89423
1 7.20503 10.953 11.3764
1 7.28089 13.3087 13.9786
1 9.35722 11.1592 14.6222
1 9.3095 13.2251 16.5917
2 9.28507 11.2847 16.5561
1 7.36607 11.2944 16.7447
1 9.33076 11.3763 18.5038
1 7.51666 13.3314 19.1356
1 9.47249 13.1637 21.4644
1 7.35524 13.2237 23.2996
2 9.26823 13.2537 23.4278
1 9.3264 11.3061 23.6515
1 9.32473 13.3729 25.4026
1 7.18755 11.1822 26.1853
1 9.38496 11.2255 27.9285
2 7.37898 14.9628 28.0406
1 7.32877 15.2848 2.26582
2 7.4231 17.0707 2.93739
1 9.33548 17.1494 3.11398
1 7.42105 17.1222 4.78509
2 9.36114 17.1551 5.05781
1 9.34339 15.1923 5.43148
1 9.38247 17.1103 7.00243
2 9.08403 15.2053 7.30745
1 7.27346 15.1238 7.72332
1 9.48663 15.1821 9.15592
2 7.38502 15.2245 9.73567
1 7.3882 17.1448 10.0165
1 7.44494 15.3257 11.7085
2 7.37059 17.1746 11.9761
1 9.32261 17.2043 12.3723
1 7.42573 17.0111 14.0344
2 9.4463 17.0414 14.2383
1 9.17606 15.2497 14.6418
1 9.23358 17.1133 16.1278
2 9.46321 15.1157 16.5248
1 7.39763 15.372 16.834
1 9.31718 15.0257 18.5194
2 7.31844 15.219 18.8854
1 7.39044 17.1518 19.1088
1 7.40331 15.3433 20.7973
2 7.31388 17.1891 21.1488
1 9.41272 17.3531 21.5081
1 7.39222 17.1497 23.0882
2 9.33224 17.1172 23.5092
1 9.34328 15.2039 23.8466
1 9.32269 17.1706 25.4274
2 9.3294 15.2627 25.8017
1 7.33656 15.1578 26.1623
1 9.27533 15.2624 27.7407
2 7.38783 19.3657 28.0625
1 7.31599 21.1778 0.619984
1 7.37967 18.7677 2.17094
1 9.32096 21.0729 3.15786
1 7.38012 21.0669 4.8783
2 9.33122 21.0627 5.03897
1 9.335 19.0946 5.39788
1 9.33826 20.9618 6.97636
2 9.34546 19.0709 7.34785
1 7.37967 19.0878 7.72361
1 9.33778 19.1076 9.29423
2 7.44855 19.0924 9.66263
1 7.24744 21.0671 9.80756
1 7.37026 19.0064 11.58
1 9.44997 21.0443 12.3652
1 7.42164 21.003 14.1142
2 9.31885 21.2851 14.2216
1 9.4 21.0948 16.1064
1 7.24906 18.9862 16.9411
1 9.25623 19.0982 18.8349
2 7.35573 19.0998 18.8343
1 7.38222 20.9666 19.2624
1 7.43975 19.1218 20.8095
2 7.30916 21.1371 21.1481
1 9.41673 20.8586 21.5187
1 7.39572 21.2162 23.125
2 9.39712 21.0374 23.5104
1 9.33361 19.0994 23.7235
1 9.32177 21.0403 25.4239
2 9.3337 19.0994 25.7598
1 7.38893 19.0941 26.1783
1 9.29453 19.0736 27.7403
2 7.52387 23.0023 28.0798
1 7.514 24.9442 0.771533
1 7.35077 23.1662 2.33455
2 7.29854 25.0507 2.80304
1 9.16364 24.9971 2.93499
1 7.48919 25.0573 4.8773
2 9.39786 24.7194 4.70234
1 9.3318 23.1069 5.57437
2 9.38569 22.725 7.42394
1 7.46737 23.2402 7.705
1 9.3512 23.0534 9.27827
2 7.46296 22.9939 9.69027
1 7.40707 24.9774 9.90544
1 7.44287 23.2076 11.581
2 7.20218 25.0545 11.8614
1 7.54267 24.9808 13.7434
2 9.33259 24.9886 14.4518
1 9.322 23.0906 14.646
1 9.33095 24.9763 16.3047
2 9.33407 23.0381 16.5997
1 7.38985 23.0077 16.7497
1 9.49796 22.9929 18.5088
1 7.38495 25.0623 19.2549
1 7.40557 23.0327 21.1898
2 7.45554 24.9683 21.1595
1 9.38467 25.0462 21.5663
1 7.38843 24.8161 23.1567
2 9.38609 25.0242 23.5696
1 9.18452 23.0037 23.8385
1 9.33472 24.8058 25.474
2 9.39575 22.9407 25.8
1 7.5007 23.0165 26.1797
1 9.38739 23.1802 27.7567
2 11.0281 26.9391 0.489044
1 11.5143 1.44518 0.79681
1 11.3215 -0.330947 2.35158
2 11.2245 1.52575 2.7723
1 13.242 1.672 3.01529
1 11.2514 1.45609 4.70914
2 13.2367 1.48437 5.06452
1 13.2408 26.9376 5.41594
1 13.2544 1.53994 6.99909
2 13.2268 -0.442709 7.3382
1 11.3426 -0.434906 7.70637
1 13.2859 26.8626 9.29414
2 11.3063 -0.468043 9.65355
1 11.3059 1.42007 9.85086
1 11.2181 26.7782 11.596
1 13.3817 1.67556 12.3608
1 11.2996 1.53414 14.0768
2 13.2501 1.46112 14.2694
1 13.2339 26.9165 14.6344
1 13.2408 1.53003 16.1964
2 13.225 -0.433022 16.5769
1 11.2962 26.9314 16.855
1 13.2013 26.9271 18.5372
2 11.28 -0.427484 18.7049
1 11.2891 1.36772 19.3969
2 11.2944 1.75593 21.2488
1 13.2011 1.46845 21.5484
1 11.2874 1.47572 23.1187
2 13.1809 1.52083 23.5414
1 13.2529 -0.427418 23.7483
1 13.2461 1.50055 25.5941
2 13.3064 26.8898 25.5649
1 11.6574 26.9478 26.4027
2 11.2051 3.49119 28.0836
1 11.2854 5.37493 0.74584
1 11.4384 3.4681 2.39951
2 11.2311 5.43361 2.58857
1 13.0911 5.29151 3.25625
2 13.4957 5.45708 5.146
1 13.1786 3.50785 5.27624
1 13.2316 5.40391 7.00111
2 13.2423 3.47195 7.3526
1 11.2698 3.43167 7.72991
1 13.2236 3.5217 9.38823
2 11.3292 3.23134 9.62467
1 11.4694 3.82716 11.3821
2 11.1642 5.48295 12.1422
1 13.2453 5.36729 12.2961
1 11.3097 5.43633 13.9682
2 13.2748 5.43236 14.3339
1 13.2418 3.47059 14.4945
1 13.2488 5.41651 16.2184
2 13.1756 3.46522 16.5188
1 11.2829 3.45676 16.9463
1 13.2477 3.45743 18.5006
2 11.3635 3.45107 18.8944
1 11.2819 5.39226 19.2377
1 11.2919 3.53347 20.8121
2 11.2861 5.41046 21.1988
1 13.2439 5.43859 21.5633
1 11.4042 5.43364 23.1135
2 13.2655 5.35503 23.5014
1 13.2432 3.44432 23.8644
1 13.2445 5.43532 25.4244
2 13.2436 3.51753 25.794
1 11.3145 3.45929 26.1742
1 13.2482 3.39592 27.86
2 11.2906 7.20465 28.0475
1 11.2951 7.31047 2.28147
1 13.3729 9.3409 3.14165
1 11.2847 9.35275 4.87318
2 13.1845 9.25719 5.04628
1 13.1879 7.3283 5.41221
1 13.2487 9.25559 6.98406
2 13.2603 7.35345 7.44527
1 11.2892 7.37919 7.72432
1 13.0363 7.31965 9.38899
2 11.246 7.72378 9.59202
1 11.3638 9.5426 10.222
1 11.493 7.28165 11.5068
2 10.9942 9.04231 11.9454
1 11.5176 9.39197 13.675
2 13.2276 9.39801 14.4585
1 13.2336 7.4114 14.5123
1 13.4526 9.30921 16.2903
2 13.2002 7.30714 16.5532
1 11.2958 7.42608 16.9475
1 13.2161 7.42699 18.512
2 11.2941 7.22141 18.8375
1 11.2872 7.318 20.719
1 13.3796 9.33699 21.551
1 11.2877 9.33731 23.2946
2 13.1867 9.31538 23.4603
1 13.3992 7.37052 23.8419
1 13.2526 9.32796 25.4188
2 13.2133 7.38587 25.8146
1 11.295 7.39919 26.1674
1 13.2048 7.44108 27.7487
2 11.29 11.4921 28.0388
1 11.2714 13.3094 0.804589
1 11.2931 11.3514 2.27319
2 11.3003 13.2828 2.75097
1 13.2101 13.2397 3.04851
1 11.2987 13.2481 4.71165
2 13.1673 13.2974 4.91927
1 13.4274 11.4242 5.54331
2 13.2288 11.0539 7.42036
1 11.3281 11.356 7.63973
1 13.2187 11.3054 9.28661
2 11.2723 11.3151 9.48818
1 11.2323 13.106 10.1919
2 11.4492 13.4922 11.9798
1 13.2583 13.1701 12.2421
1 11.3624 13.1923 13.7831
2 13.2633 13.2546 14.0805
1 13.3252 11.4813 14.895
2 12.8702 11.0194 16.6167
1 11.154 11.3396 16.784
1 13.7082 11.3612 18.15
1 11.1256 13.3782 19.2519
1 11.3134 11.3536 20.8549
2 11.3622 13.2371 21.1874
1 13.2482 13.228 21.3566
1 11.1694 13.236 23.1109
1 13.2505 11.1701 23.8645
1 13.2527 13.2324 25.6212
2 13.3333 11.2927 25.773
1 11.4263 11.2627 26.1827
1 13.221 11.236 27.7367
2 11.2832 15.2275 0.448118
1 11.2906 17.1515 0.818125
1 11.2988 15.2052 2.39201
2 11.2939 17.0977 2.76601
1 13.2494 17.1391 3.12172
1 11.2983 17.1364 4.69529
2 13.2457 17.1335 5.06997
1 13.2044 15.1318 5.36028
1 13.2011 17.2628 6.98499
1 13.129 15.141 9.36928
2 11.2804 15.1929 9.81024
1 11.3065 17.1378 10.0182
1 11.235 15.2639 11.666
2 11.2908 17.1812 11.9704
1 13.2471 17.1237 12.3409
1 11.2996 17.2133 13.9361
2 13.2511 17.1281 14.2761
1 13.2267 15.0458 14.8111
1 13.2276 17.3552 16.2902
2 13.2486 15.5516 16.6437
1 11.3457 15.1912 16.9533
1 13.1307 15.187 18.4851
2 11.2714 15.2997 18.8969
1 11.4047 17.4393 19.4015
1 11.2827 15.1149 20.7964
2 11.2906 16.8428 21.2398
1 13.1702 17.3485 21.5201
1 11.2859 17.1997 23.0857
2 13.2033 17.1827 23.4851
1 13.2301 15.327 23.8748
1 13.4024 17.1637 25.4255
2 13.1851 15.1341 25.7786
1 11.2754 15.1873 26.1635
1 13.2566 15.202 27.7091
2 11.2849 19.1054 0.449956
1 11.2791 21.0506 0.622464
1 11.2899 18.9854 2.36758
1 13.4012 21.2509 3.14705
1 11.284 21.0874 4.86694
2 13.2423 21.0151 5.05288
1 13.2507 19.1074 5.43174
1 13.2469 21.0951 6.99668
2 13.2521 19.1665 7.3811
1 11.29 19.1061 7.73151
1 13.116 19.1146 9.28835
2 11.2289 19.1077 9.67428
1 11.3051 21.0841 10.032
1 11.2761 19.0986 11.6003
2 11.3086 20.9993 11.96
1 13.26 21.2325 12.3211
1 11.2556 20.9915 13.9227
2 13.2265 21.0404 14.2923
1 13.2536 19.1109 14.5246
1 13.2399 20.965 16.2758
2 13.2169 19.1555 16.3095
2 11.0188 19.1026 18.7149
1 11.3914 20.7435 19.4167
2 11.2965 21.3478 21.2355
1 13.1602 20.8869 21.5171
1 11.3008 21.0159 23.0889
2 13.2295 21.1121 23.5159
1 13.2466 19.1214 23.6997
1 13.2583 21.0779 25.4354
2 13.1826 19.1612 25.7528
1 11.2765 19.1197 26.1547
1 13.2487 19.1233 27.7114
2 11.2933 22.9992 0.432157
1 11.1813 25.0163 0.570762
1 11.3841 23.0323 2.3327
1 13.3968 24.797 3.15566
1 11.224 25.0418 4.91579
2 13.2374 25.0237 5.05287
1 13.217 23.0279 5.29768
1 13.2474 24.9685 6.98815
2 13.2403 23.0346 7.3421
1 11.2792 23.0621 7.71805
1 13.2803 23.0776 9.4178
2 11.2719 23.0345 9.63936
1 11.2567 24.9675 10.0494
1 11.4212 23.0343 11.6253
2 11.4857 24.9705 11.9217
1 13.3024 24.8197 12.3347
1 11.1403 24.9746 13.7603
2 13.2093 25.0082 14.2994
1 13.2219 23.0082 14.532
1 13.2228 24.9559 16.2059
2 13.244 23.0003 16.5407
1 11.3022 22.9916 16.9564
1 13.2421 23.019 18.5053
2 11.3698 23.0397 18.8765
1 11.2851 25.1538 19.3805
1 11.2863 23.0587 20.7465
2 11.2858 24.8023 21.245
1 13.1962 25.0285 21.5374
1 11.2943 25.0041 23.1245
2 13.25 24.9682 23.4799
1 13.2423 23.0286 23.8666
1 13.2672 24.9676 25.4221
2 13.2609 23.0313 25.8345
1 11.3091 23.0044 26.1484
1 13.1841 23.0106 27.8417
2 15.4933 26.8669 0.51791
1 14.9905 1.4339 0.792979
1 15.172 -0.441193 2.36353
2 15.2657 1.46446 2.76263
1 17.152 1.52045 3.05784
1 15.2103 1.53645 4.69091
2 17.1609 1.55827 4.92106
1 17.152 -0.336358 5.31455
1 15.1152 -0.405977 7.73217
1 17.1186 26.8913 9.69895
2 15.1949 -0.202954 9.58039
1 15.2254 1.58334 10.04
1 15.3354 26.7835 11.4795
2 15.2326 1.51543 11.9561
1 17.1616 1.34689 12.3421
1 15.216 1.47782 13.9058
2 17.0658 1.5387 14.3524
1 17.3423 -0.477001 14.521
1 17.4066 1.23213 16.3059
2 16.8392 26.803 16.4718
1 15.0988 -0.440147 16.9777
1 17.3289 -0.294272 18.3663
2 15.1119 26.8727 18.885
1 15.3368 1.47853 19.2131
1 15.2128 26.9164 20.7939
2 15.1431 1.44325 21.193
1 17.164 1.63889 21.142
1 15.0784 1.53146 23.1012
1 17.2812 26.7585 23.9027
1 17.2713 1.50833 25.6474
2 16.9961 26.9092 25.7847
1 15.0305 -0.431206 26.342
1 17.2425 -0.446058 27.6865
2 15.2388 3.45761 28.0786
1 15.3428 5.44178 0.805705
1 15.0244 3.48067 2.37369
2 15.1396 5.4973 2.76513
1 17.0183 5.41466 2.93036
1 15.2839 5.40753 4.68036
2 17.2014 5.38999 4.78453
1 17.1637 3.47252 5.60866
2 17.1432 3.43781 7.4443
1 15.255 3.46403 7.70671
1 17.1789 3.55266 9.29505
2 15.2224 3.44945 9.63728
1 15.1999 5.3176 10.066
1 15.0084 3.49849 11.6284
2 15.3344 5.49454 11.9489
1 17.1867 5.44071 12.3506
1 15.2343 5.48239 13.8915
2 17.137 5.17937 14.2394
1 17.1913 3.37967 14.5073
1 17.1478 5.731 16.0079
1 15.0897 3.45487 16.9456
1 17.0853 3.33307 18.8635
2 15.1457 3.5263 18.8676
1 15.1824 5.43769 19.2548
1 15.3422 3.46733 20.8627
2 15.1415 5.4418 21.1638
1 17.1605 5.27935 21.56
1 15.2148 5.58096 23.1279
2 17.231 5.47595 23.5464
1 17.1616 3.61704 23.7664
1 17.1538 5.43697 25.5312
2 17.0733 3.45469 25.69
1 15.1759 3.46633 26.1709
1 17.148 3.63497 27.7385
2 15.1361 7.4447 28.0568
1 15.2116 9.35375 0.798139
1 15.1805 7.38323 2.36847
2 15.2649 9.30709 2.71536
1 17.1565 9.31481 3.14269
1 15.1859 9.51461 4.70115
2 17.1986 9.21054 5.07772
1 17.1508 7.2128 5.55779
1 17.155 9.39234 7.00886
2 17.0763 7.61785 7.43277
1 15.2143 7.31474 7.53455
1 17.3178 7.27074 9.28752
1 15.1569 9.45952 10.0598
1 15.0077 7.47839 11.8665
2 15.4989 9.33916 11.9149
1 17.2615 9.29646 12.3601
1 15.0999 9.32541 13.8757
2 17.076 9.52667 14.1894
1 16.9344 9.27528 16.0869
2 17.1997 7.40707 16.777
1 15.2215 7.43586 16.9413
1 17.151 7.38761 18.6077
2 15.1839 7.34634 18.9454
1 15.2091 9.32285 19.1058
1 15.1897 7.39545 20.9288
2 15.2665 9.3538 21.1222
1 17.1628 9.35708 21.5611
1 15.2108 9.1815 23.1287
2 17.2061 9.42496 23.491
1 17.0027 7.37774 23.8437
1 17.1562 9.26516 25.4091
2 17.1964 7.39669 25.798
1 15.1966 7.37448 26.0717
1 17.1837 7.24095 27.7578
2 15.1869 11.2892 0.48691
1 15.2203 13.227 0.814322
1 15.2168 11.2993 2.50736
2 15.1529 13.2892 2.73992
1 17.0382 13.236 3.00927
1 15.0291 13.1051 4.65267
1 17.0235 11.1383 5.43848
1 17.1628 13.2415 7.16724
2 17.1498 11.3135 7.35995
1 15.1411 11.3624 7.60287
1 16.9909 11.282 9.26724
2 15.125 11.3595 9.64097
1 15.1975 13.246 10.0296
1 15.1408 11.2356 11.6272
2 15.201 13.2206 11.9833
1 17.1305 13.2303 12.346
1 15.1834 13.2482 14.0404
2 17.1324 13.3295 14.2564
1 17.2954 11.3314 14.6492
1 16.9957 13.1817 16.2359
2 17.4439 11.2831 16.525
1 16.961 11.2658 18.2997
2 15.2574 11.2325 19.1376
1 15.2185 13.1017 19.166
1 15.1997 11.2893 20.9522
2 15.1218 13.248 21.1293
1 17.1405 13.4153 21.4622
1 15.3328 13.2524 23.1005
2 17.1889 13.1459 23.3193
1 17.1583 11.406 24.0044
2 17.1494 11.0421 25.864
1 15.258 11.3658 26.1719
1 17.1982 11.2571 27.7434
2 15.1917 15.1614 0.46828
1 15.205 17.1499 0.682025
1 15.2128 15.2106 2.38174
2 15.203 17.1553 2.71507
1 17.1485 17.1509 3.11173
1 15.1778 17.1441 4.68483
2 17.0862 17.2237 5.05685
1 17.164 15.3275 5.43494
1 17.1382 17.1623 6.99962
2 17.1994 15.1899 7.3401
1 15.3027 15.1452 7.73514
1 17.1649 15.2139 9.29226
2 15.1708 15.1405 9.64119
1 15.186 17.0125 10.0474
1 15.1838 15.1854 11.6089
2 15.2135 17.1563 11.9634
1 17.1956 17.2154 12.3325
1 15.1915 17.1456 13.9116
2 17.1467 17.1515 14.2755
1 17.1667 15.212 14.6791
1 17.0945 17.2049 16.223
2 17.1594 15.2859 16.6521
1 15.1224 15.0962 16.7135
1 17.3131 15.1915 18.5926
1 15.1068 17.3816 19.2455
1 15.2972 15.1995 21.0404
2 15.1618 17.1058 21.1958
1 17.1406 16.9704 21.5317
1 15.19 17.1623 23.2036
2 17.1385 17.2858 23.4572
1 17.3113 15.059 23.9074
1 16.9891 17.2058 25.3985
2 17.1916 15.3916 25.8378
1 15.2362 15.3251 26.13
1 17.1634 15.1722 27.7041
2 15.1942 19.1611 0.458296
1 15.2723 21.1154 0.809368
1 15.2009 19.0955 2.37145
2 15.278 21.0079 2.75471
1 17.1593 21.0726 3.11342
1 15.2236 21.0565 4.70393
2 17.1645 21.0732 5.06259
1 17.1449 19.1262 5.41637
1 17.1447 21.0536 7.00849
2 17.1433 19.1026 7.35997
1 15.1993 19.1086 7.53975
1 17.304 19.1195 9.28076
1 15.2016 21.1019 10.0819
1 15.1937 19.0857 11.7933
2 15.2348 20.9848 11.9691
1 17.1046 21.008 12.3556
1 15.1726 21.0761 13.9078
2 17.0674 21.0097 14.2756
1 17.1441 19.1118 14.6405
1 17.1171 21.0173 16.2002
2 17.4468 19.1056 16.4966
1 17.1549 19.1137 18.3492
2 15.5326 19.1838 19.1136
1 15.1316 21.0005 19.2256
1 15.0924 19.1189 20.8899
2 15.2742 21.1292 21.1775
1 17.2858 21.0583 21.6748
1 15.1171 21.0577 23.0779
2 16.9151 21.0568 23.5336
1 17.2119 19.175 23.8449
1 17.1666 21.0938 25.416
2 17.1837 19.1869 25.7953
1 15.1955 18.9574 26.1391
1 17.1358 19.114 27.729
2 15.004 23.0295 28.1192
1 15.2279 24.961 0.804332
1 15.0184 23.0285 2.37349
2 15.2751 25.021 2.75957
1 17.1645 24.9938 3.11437
1 15.2334 24.9976 4.70594
2 17.1606 25.0023 5.07081
1 17.1637 23.0151 5.42625
1 17.1538 24.8515 6.97827
2 17.1555 22.96 7.36957
1 15.1893 23.0535 7.72737
1 17.1343 23.05 9.32789
2 15.2305 22.853 9.57565
1 15.038 23.1627 11.4727
2 15.2174 24.9677 12.1418
1 17.1539 25.1305 12.3472
1 15.1838 24.9863 13.9905
2 17.0523 24.9164 14.3045
1 17.3332 22.9854 14.6168
1 17.2212 24.9908 16.2023
2 17.1219 23.0073 16.6035
1 15.1948 23.0193 16.9347
1 17.1563 23.0088 18.521
2 15.1859 23.0077 18.8748
1 15.2125 24.971 19.2377
1 15.2054 23.0091 20.8083
2 15.1228 24.9758 21.1733
1 17.0336 24.9894 21.5613
1 15.1896 24.9515 23.1195
2 17.1404 24.8671 23.4719
1 17.2082 22.9601 23.7669
1 17.1233 24.9388 25.4502
2 17.1667 23.0258 25.619
1 15.349 23.0171 26.2851
2 19.0713 26.8811 0.456075
1 19.1091 1.50505 0.695527
1 19.1143 26.9124 2.37888