1880
Atoms. Timestep: 556
2 26.7525 -0.259702 0.258887
1 0.684836 1.64002 0.640672
1 26.7864 26.7611 2.22179
2 -0.276298 1.63796 2.59405
1 1.65128 1.64197 3.01593
1 -0.294093 1.64107 4.54621
2 1.64157 1.64059 4.93422
1 1.64216 26.783 5.3169
1 1.64545 1.63884 6.87745
2 1.64225 26.7834 7.26456
1 -0.288166 -0.291139 7.6464
1 1.63807 -0.290877 9.21254
2 26.7814 -0.296751 9.59773
1 -0.269776 1.61269 9.97248
1 -0.292756 26.7801 11.5497
2 -0.277852 1.65032 11.9149
1 1.66536 1.58121 12.3398
1 26.7814 1.65417 13.8723
2 1.61093 1.63808 14.2508
1 1.64863 -0.291602 14.6594
1 1.77698 1.62155 16.1993
2 1.59953 26.7437 16.6076
1 26.7746 26.7724 17.0006
1 1.64904 -0.295868 18.5507
2 -0.249631 -0.247575 18.9414
1 26.7299 1.62144 19.3521
1 26.7771 -0.294106 20.8902
2 -0.290797 1.64283 21.279
1 1.64199 1.64207 21.6661
1 -0.290617 1.64233 23.2243
2 1.64248 1.64251 23.6146
1 1.64435 -0.285737 23.9986
1 1.64258 1.64345 25.5617
2 1.64724 26.7823 25.9478
1 -0.265665 26.7821 26.3228
1 1.66024 26.7194 27.8733
2 -0.257231 3.57514 0.273091
1 -0.286649 5.51589 0.647405
1 26.7893 3.60322 2.22456
2 26.7824 5.51401 2.59158
1 1.65037 5.51569 2.98196
1 -0.281807 5.50961 4.513
2 1.59901 5.4665 4.92752
1 1.63907 3.57065 5.31752
1 1.66311 5.51164 6.87238
2 1.64364 3.57595 7.26413
1 -0.269202 3.51388 7.67765
1 1.66221 3.57526 9.187
2 -0.243679 3.53466 9.62288
1 26.6747 5.54755 9.97207
1 0.633347 3.59174 11.5551
2 -0.227218 5.39015 11.9474
1 1.67004 5.67016 12.3302
1 26.774 5.51467 13.9288
2 1.67795 5.48041 14.274
1 1.64045 3.57237 14.6702
1 1.50606 5.52418 16.1999
2 1.64082 3.57273 16.6663
1 26.7678 3.70768 16.9736
1 1.63278 4.33177 18.5154
2 -0.236748 3.54389 18.9524
1 26.7249 5.53788 19.282
1 -0.282722 3.57723 20.895
2 -0.293156 5.50916 21.259
1 1.64102 5.5097 21.6656
1 26.784 5.51026 23.223
2 1.64102 5.51052 23.612
1 1.64206 3.57633 23.9996
1 1.63973 5.50921 25.5582
2 1.64477 3.57853 25.9455
1 -0.288653 3.56236 26.341
1 1.66215 3.64421 27.8729
2 26.7814 7.44348 0.259234
1 26.7813 9.37273 0.645444
1 -0.279388 7.44416 2.20695
2 26.7853 9.37513 2.59413
1 1.64562 9.37225 2.98888
1 26.7835 9.37911 4.54499
2 1.59972 9.41774 4.94801
1 1.77291 7.44434 5.30158
1 1.65083 9.37575 6.94715
2 1.61126 7.41279 7.27371
1 -0.270925 7.51371 7.67791
1 1.65412 7.57952 9.31373
2 26.7816 7.45042 9.55481
1 -0.153524 9.3739 9.98886
1 -0.298432 7.44441 11.5913
2 26.7494 9.47534 11.9542
1 1.63473 9.24327 12.2264
1 26.7861 9.36358 13.8703
2 1.60827 9.40997 14.2635
1 1.64278 7.45079 14.5923
1 1.77668 9.38179 16.2322
2 1.64283 7.44301 16.59
1 26.7853 7.30794 16.9839
1 1.6429 7.45597 18.5444
2 -0.292713 7.4773 18.9655
1 -0.292055 9.36868 19.3211
1 26.7856 7.44655 20.8959
2 -0.292216 9.43455 21.2678
1 1.66326 9.3183 21.6818
1 -0.291902 9.38339 23.2267
2 1.64395 9.37447 23.6134
1 1.64223 7.44203 24.0017
1 1.62953 9.37399 25.5613
2 1.64249 7.44344 25.949
1 26.7863 7.44356 26.3336
1 1.63955 7.44472 27.8999
2 26.741 11.2684 28.2817
1 -0.154551 13.2414 0.630225
1 -0.282995 11.3111 2.19998
2 26.7496 13.2136 2.59415
1 1.63609 13.2535 2.91345
1 26.7848 13.3769 4.55951
2 1.68259 13.2068 4.91031
1 1.64202 11.3123 5.31285
1 1.6338 13.2473 6.86885
2 1.64156 11.3414 7.24134
1 -0.288768 11.3039 7.65631
1 1.63575 11.1879 9.22297
2 26.74 11.3528 9.59942
1 26.7821 13.2523 9.98594
1 -0.286042 11.3236 11.5444
2 -0.291983 13.2493 11.9363
1 1.63808 13.2473 12.3225
1 -0.28745 13.2405 13.8854
2 1.64524 13.2447 14.2707
1 1.64602 11.3113 14.6628
1 1.63873 13.2509 16.2188
2 1.6009 11.3548 16.6054
1 -0.292704 11.3187 16.9947
1 1.65864 11.3053 18.5203
2 -0.292175 11.3093 18.9988
1 26.786 13.2564 19.3175
1 0.463169 11.3123 20.8665
2 -0.29186 13.1913 21.2656
1 1.66542 13.3046 21.6879
1 26.7861 13.2385 23.2256
2 1.6419 13.2472 23.6319
1 1.64193 11.3125 23.9989
1 1.63868 13.2485 25.6324
2 1.64279 11.2817 25.9264
1 -0.289226 11.3178 26.3397
1 1.63869 11.4442 27.9155
2 26.7831 15.179 0.276887
1 26.65 17.1181 0.630293
1 -0.292633 15.1806 2.26907
2 -0.260381 17.1476 2.59211
1 1.64458 17.1074 2.9839
1 -0.290268 16.9798 4.55372
2 1.65321 17.1586 4.90785
1 1.51631 15.1813 5.30529
1 1.77096 17.1079 6.88736
2 1.63082 15.1358 7.28884
1 26.7786 15.1765 7.58155
1 1.64484 15.1851 9.2128
2 -0.29045 15.1821 9.58215
1 -0.286613 17.112 9.99428
1 26.7818 15.1747 11.5457
2 26.742 17.0681 11.9375
1 1.64282 17.2445 12.3078
1 -0.284198 17.1233 13.8799
2 1.64359 17.0807 14.2904
1 1.64388 15.1747 14.6592
1 1.64091 17.1106 16.221
2 1.64304 15.1784 16.609
1 -0.285071 15.1819 16.9927
1 1.64338 15.1797 18.5556
2 26.7848 15.1754 18.9448
1 -0.27884 17.0974 19.3294
1 -0.290561 15.1782 20.8911
2 26.7806 17.1146 21.2782
1 1.64021 17.114 21.6642
1 -0.289995 17.1144 23.2277
2 1.64125 17.1149 23.6108
1 1.64259 15.1807 23.9988
1 1.64326 17.1165 25.5598
2 1.64122 15.2106 25.9262
1 -0.290932 15.1797 26.3492
1 1.64492 15.0426 27.9113
2 -0.250495 19.092 28.2819
1 -0.289611 20.9859 0.648693
1 26.7807 19.0484 2.19977
2 26.7815 20.9805 2.61156
1 1.6407 20.9798 2.97817
1 -0.284409 20.9863 4.61594
2 1.67453 20.9822 4.90799
1 1.64532 19.0525 5.32861
1 1.50787 20.9859 6.89162
2 1.6406 19.0475 7.28349
1 26.7821 19.1817 7.64039
1 1.64254 19.0478 9.27525
2 26.7535 19.014 9.60269
1 -0.285118 20.9783 9.92099
1 -0.162434 19.0476 11.5663
2 26.7409 21.0246 11.917
1 1.64136 20.8508 12.3098
1 -0.285653 20.972 13.8748
2 1.64106 21.0124 14.3127
1 1.64257 19.045 14.5823
1 1.5774 20.9568 16.2725
2 1.64266 19.0184 16.5641
1 26.7852 19.0586 17.0011
1 1.6424 19.1716 18.5642
2 26.7824 18.9471 18.937
1 -0.289598 20.9833 19.2851
1 26.7827 19.0563 20.8767
2 26.7426 20.9415 21.3313
1 1.64068 21.1131 21.5726
1 -0.281195 20.9872 23.2269
2 1.64429 20.9522 23.6266
1 1.64299 19.0427 23.9981
1 1.58188 20.9581 25.5444
2 1.64182 19.0455 25.9499
1 26.7799 19.0408 26.3423
1 1.64659 19.0505 27.8972
2 26.7863 22.9165 0.263516
1 -0.233655 24.827 0.668491
1 -0.281975 22.9099 2.2145
2 26.7884 24.8452 2.59586
1 1.64519 24.8491 2.98509
1 26.7872 24.8472 4.54634
2 1.64114 24.8497 4.92975
1 1.63609 22.9131 5.32081
1 1.64433 24.8544 6.87772
2 1.68439 22.959 7.26419
1 -0.293304 22.7833 7.63776
1 1.63387 22.907 9.20786
2 26.7834 22.9469 9.62092
1 26.7858 24.8516 9.99105
1 26.7812 22.9198 11.5512
2 26.7827 24.8504 11.9373
1 1.6376 24.85 12.3238
1 -0.288251 24.8531 13.8816
2 1.64064 24.8509 14.2698
1 1.64793 22.9191 14.6588
1 1.58094 24.8683 16.1992
2 1.69665 22.9441 16.6071
1 26.7845 22.904 17.0156
1 1.64068 22.7837 18.6578
2 -0.262704 22.9721 18.9246
1 26.6493 24.8563 19.3176
1 -0.166774 22.9079 20.8891
2 26.7727 24.8909 21.2991
1 1.64272 24.7278 21.6559
1 -0.284248 24.844 23.2203
2 1.64365 24.8799 23.6358
1 1.64827 22.9143 23.9244
1 1.58455 24.87 25.5425
2 1.69633 22.9159 25.9432
1 26.7924 22.9154 26.3365
1 1.63095 22.9112 27.9043
2 3.53488 26.7366 28.2814
1 3.71237 1.64105 0.631448
1 3.58241 -0.286813 2.20433
2 3.54547 1.64147 2.61696
1 5.51027 1.64215 2.91007
1 3.5807 1.64073 4.54964
2 5.51009 1.6422 4.90934
1 5.5098 -0.291869 5.31285
1 5.51003 1.64559 6.87299
2 5.50981 -0.260956 7.24349
1 3.57903 26.7772 7.65667
1 5.50987 26.6524 9.22723
2 3.5339 -0.249636 9.60035
1 3.57281 1.64577 9.99009
1 3.58546 26.7791 11.5431
2 3.57684 1.63837 11.955
1 5.50527 1.6431 12.3158
1 3.57968 1.64326 13.9571
2 5.53735 1.63987 14.2499
1 5.4982 -0.289563 14.661
1 5.3787 1.64057 16.2339
2 5.55004 26.742 16.606
1 3.57596 -0.153879 16.9803
1 5.50603 -0.289546 18.5479
2 3.57533 26.7515 18.9617
1 3.63607 1.61689 19.2818
1 3.57666 26.7888 20.898
2 3.57638 1.64383 21.2592
1 5.50444 1.64282 21.6673
1 3.57702 1.6417 23.2234
2 5.50737 1.64415 23.6333
1 5.50398 26.7841 23.995
1 5.5093 1.64208 25.634
2 5.51016 26.7533 25.9271
1 3.58328 -0.271688 26.3353
1 5.51041 -0.161436 27.9106
2 3.53572 3.61842 28.2803
1 3.57615 5.51616 0.646309
1 3.58225 3.56923 2.20006
2 3.57776 5.47872 2.57412
1 5.50632 5.51595 2.98508
1 3.5762 5.64205 4.55677
2 5.55117 5.4661 4.92744
1 5.51285 3.57003 5.31577
1 5.50159 5.50932 6.87191
2 5.50788 3.5759 7.26582
1 3.58006 3.57521 7.6492
1 5.50951 3.57751 9.21371
2 3.57705 3.57429 9.59904
1 3.56933 5.50047 9.99216
1 3.589 3.56967 11.5503
2 3.62097 5.4705 11.9347
1 5.51081 5.50666 12.3188
1 3.58122 5.5167 13.8787
2 5.5073 5.51215 14.27
1 5.49236 3.57327 14.6604
1 5.51755 5.51067 16.2192
2 5.54854 3.61681 16.6041
1 3.59314 3.44444 16.9713
1 5.4964 3.56989 18.5486
2 3.51628 3.60833 18.9522
1 3.63499 5.53101 19.3545
1 3.56947 3.57493 20.8941
2 3.57486 5.50894 21.2834
1 5.49955 5.51347 21.665
1 3.57467 5.50871 23.2279
2 5.5104 5.51064 23.6132
1 5.49375 3.57675 23.9966
1 5.50941 5.5144 25.559
2 5.51392 3.60682 25.9255
1 3.58391 3.56773 26.3353
1 5.50714 3.4452 27.9129
2 3.57639 7.44027 0.276622
1 3.57511 9.36198 0.646127
1 3.57367 7.44187 2.27841
2 3.57666 9.41228 2.5736
1 5.48233 9.31243 3.00995
1 3.57271 9.24894 4.5583
2 5.55213 9.41903 4.94854
1 5.37852 7.44264 5.30241
1 5.50353 9.37596 6.94796
2 5.54216 7.41194 7.26108
1 3.57412 7.45954 7.59202
1 5.51465 7.56661 9.22608
2 3.60908 7.34477 9.55833
1 3.57593 9.3775 9.94747
1 3.44003 7.4539 11.546
2 3.57672 9.37725 12.0078
1 5.51631 9.50856 12.2296
1 3.57529 9.37694 13.95
2 5.54292 9.34518 14.2626
1 5.50002 7.44673 14.6651
1 5.37979 9.37811 16.2342
2 5.55122 7.40203 16.6092
1 3.57955 7.5793 16.9807
1 5.50919 7.45097 18.5511
2 3.57445 7.41265 18.9624
1 3.57579 9.37746 19.2575
1 3.57672 7.44565 20.8942
2 3.57646 9.37838 21.257
1 5.50896 9.37699 21.6649
1 3.5656 9.37988 23.1946
2 5.50822 9.37647 23.6666
1 5.50818 7.43129 23.9889
1 6.26451 9.37795 25.5363
2 5.50947 7.49872 25.9369
1 3.55233 7.38484 26.359
1 5.50816 7.44806 27.897
2 3.57919 11.2143 28.2785
1 3.57649 13.2474 0.603207
1 3.56075 11.3286 2.19161
2 3.57504 13.248 2.65327
1 5.48676 13.3092 2.93314
1 3.57798 13.2415 4.55641
2 5.51191 13.2505 4.91023
1 5.51156 11.317 5.31711
1 5.51223 13.2435 6.87496
2 5.50765 11.3401 7.25293
1 3.57826 11.2967 7.66176
1 5.50908 11.1784 9.30737
2 3.54342 11.4084 9.57729
1 3.58311 13.2525 9.99492
1 3.70839 11.3034 11.5496
2 3.53265 13.2838 11.9388
1 5.5001 13.1202 12.315
1 3.57877 13.239 13.8795
2 5.50823 13.2784 14.2937
1 5.50354 11.3079 14.5875
1 5.51405 13.2507 16.223
2 5.55172 11.3527 16.5886
1 3.57983 11.1811 16.9782
1 5.50686 11.3058 18.5477
2 3.57358 11.3425 18.9652
1 3.57631 13.2499 19.3315
1 3.58891 11.3118 20.894
2 3.57549 13.2471 21.2798
1 5.50999 13.2467 21.6658
1 3.57779 13.2455 23.2293
2 5.50727 13.2444 23.6312
1 5.50945 11.3261 23.9855
1 5.51019 13.2473 25.6289
2 5.50961 11.2251 25.9142
1 3.5487 11.3847 26.3635
1 5.4941 11.4416 27.8765
2 3.57617 15.2797 28.2782
1 3.5767 17.1287 0.650053
1 3.57341 15.1709 2.19101
2 3.57636 17.1095 2.61225
1 5.5079 17.1134 2.97661
1 3.58029 17.1175 4.61376
2 5.54103 17.1129 4.90822
1 5.50385 15.1836 5.32198
1 5.37757 17.1134 6.89216
2 5.54839 15.1383 7.26228
1 3.578 15.3103 7.64164
1 5.50031 15.1878 9.2048
2 3.57711 15.1525 9.62312
1 3.56852 17.1173 9.92053
1 3.5746 15.1809 11.5527
2 3.61795 17.0738 11.9176
1 5.51143 17.1119 12.3233
1 3.57304 17.1195 13.8765
2 5.50731 17.1144 14.2732
1 5.50754 15.184 14.6608
1 5.50758 17.1148 16.2213
2 5.50952 15.1842 16.6082
1 3.57574 15.1809 16.9926
1 5.50475 15.1772 18.5548
2 3.57428 15.1794 18.9417
1 3.57761 17.1091 19.3292
1 3.57798 15.1816 20.8901
2 3.57303 17.1123 21.2785
1 5.50417 17.1159 21.6659
1 3.57513 17.1133 23.2271
2 5.50704 17.1149 23.6136
1 5.5102 15.1789 23.9972
1 5.50809 17.1169 25.5605
2 5.50849 15.2091 25.9271
1 3.57599 15.1663 26.3447
1 5.50884 15.0431 27.9134
2 3.57731 19.053 28.2822
1 3.57572 20.9686 0.676407
1 3.57457 19.0438 2.21112
2 3.57805 20.9825 2.59493
1 5.51144 20.9813 2.9818
1 3.57998 20.9824 4.54016
2 5.50943 20.9797 4.92743
1 5.5033 19.0441 5.32018
1 5.51342 20.9825 6.87554
2 5.55213 19.0884 7.26185
1 3.57909 18.9124 7.63577
1 5.50935 19.0404 9.20443
2 3.60879 19.0797 9.6007
1 3.56705 20.9779 9.99527
1 3.44475 19.0473 11.5649
2 3.61831 21.0252 11.9384
1 5.5127 20.9873 12.3242
1 3.57177 20.9756 13.8777
2 5.50999 20.981 14.2711
1 5.50776 19.0457 14.6564
1 5.57071 20.9575 16.1999
2 5.50883 19.0479 16.6056
1 3.57141 19.04 16.9965
1 5.5093 19.0483 18.5551
2 3.61543 19.0094 18.9407
1 3.43507 20.9668 19.3551
1 3.57169 19.0432 20.8887
2 3.64938 20.9446 21.2947
1 5.52208 20.9777 21.6677
1 3.57006 20.9881 23.2197
2 5.5119 20.9837 23.6152
1 5.50764 19.0461 23.996
1 5.56926 20.9583 25.5417
2 5.50835 19.0484 25.9486
1 3.57587 19.0343 26.3338
1 5.50981 19.0478 27.8974
2 3.5759 22.9147 28.2284
1 3.57755 24.8551 0.678554
1 3.57571 22.9153 2.20665
2 3.57735 24.8492 2.59793
1 5.51032 24.8492 2.98525
1 3.57641 24.8485 4.54379
2 5.51004 24.8502 4.94752
1 5.50913 22.9164 5.3125
1 5.50944 24.8498 6.94927
2 5.51105 22.8861 7.24306
1 3.58368 22.9254 7.65718
1 5.50929 23.0459 9.22806
2 3.53208 22.8727 9.60013
1 3.70623 24.8492 9.97267
1 3.5847 22.9241 11.5438
2 3.54456 24.8513 11.9575
1 5.50993 24.8498 12.2511
1 3.5764 24.849 13.8855
2 5.50926 24.8499 14.2524
1 5.50376 22.9154 14.6571
1 5.56951 24.8653 16.1966
2 5.45411 22.9093 16.6161
1 3.57292 23.6754 17.0174
1 5.53462 22.9194 18.5634
2 3.6465 22.9492 18.8685
1 3.57156 24.8569 19.3656
1 3.43852 22.914 20.9022
2 3.61691 24.8879 21.2826
1 5.51286 24.8485 21.6658
1 3.57339 24.8429 23.2202
2 5.5114 24.8462 23.6107
1 5.50477 22.9149 23.9996
1 5.56912 24.8681 25.5387
2 5.45453 22.9153 25.9605
1 3.57542 23.6707 26.3589
1 5.52351 22.9148 27.9083
2 7.48571 26.7419 0.258949
1 7.31282 1.64135 0.633222
1 7.43759 -0.289075 2.20248
2 7.47442 1.64165 2.61587
1 9.3795 1.63928 2.98413
1 7.44388 1.64287 4.54683
2 9.38074 1.64207 4.93144
1 9.3772 -0.292106 5.31562
1 9.37336 1.63629 6.87885
2 9.37509 26.7815 7.26212
1 7.44008 26.7778 7.65635
1 9.3782 -0.286165 9.21129
2 7.48516 -0.250785 9.60008
1 7.44819 1.64679 9.98659
1 7.43667 26.7791 11.5414
2 7.44387 1.63605 11.9319
1 9.38421 1.64808 12.3363
1 7.41656 1.57999 13.8583
2 9.29957 1.70124 14.2951
1 9.5026 26.7834 14.648
1 9.38168 1.61522 16.2344
2 9.34814 -0.294491 16.6308
1 7.44467 26.7825 16.9976
1 9.3785 -0.292296 18.56
2 7.43763 -0.291324 18.9432
1 7.45681 1.64424 19.3356
1 7.38026 26.7586 20.8668
2 7.45415 1.62188 21.2952
1 9.37201 2.20555 21.766
1 7.39454 1.57293 23.2238
2 9.37582 1.67877 23.6094
1 9.37741 26.7701 24.0309
1 9.3712 1.61765 25.5853
2 9.37747 -0.291857 25.9499
1 7.44051 -0.285012 26.3428
1 9.38255 26.7797 27.8977
2 7.4873 3.61839 0.262902
1 7.44627 5.51462 0.649515
1 7.43681 3.57348 2.20391
2 7.44065 5.51138 2.59256
1 9.37766 5.50964 2.97725
1 7.44482 5.50674 4.53954
2 9.34616 5.51067 4.90795
1 9.38214 3.57754 5.32178
1 9.50758 5.51059 6.8936
2 9.3361 3.53376 7.26522
1 7.43858 3.57383 7.65211
1 9.38307 3.58144 9.21112
2 7.44334 3.57714 9.60176
1 7.44563 5.50525 9.98746
1 7.44523 3.575 11.5499
2 7.44153 5.51332 11.9352
1 9.3758 5.49647 12.3281
1 7.4185 5.57404 13.8636
2 9.35801 5.49736 14.2904
1 9.95654 3.57013 14.7567
1 9.37067 5.53334 16.2374
2 9.37116 3.57701 16.6023
1 7.43608 3.57787 17.0199
1 9.37279 3.58259 18.6406
2 7.40327 3.57043 18.9191
1 7.45873 5.50798 19.3364
1 7.53435 3.62068 20.872
2 7.3874 5.56595 21.2817
1 9.35933 5.50116 21.6661
1 7.41919 5.56442 23.2006
2 9.42298 5.49497 23.6404
1 10.0515 3.46246 24.1271
1 9.38482 5.52274 25.5755
2 9.37113 3.5721 25.8969
1 7.42554 3.56825 26.3746
1 9.38133 3.57761 27.8925
2 7.44215 7.44257 28.2853
1 7.44813 9.35847 0.636954
1 7.44371 7.44373 2.20771
2 7.43657 9.43303 2.58208
1 9.3931 9.32147 3.00181
1 7.44744 9.38506 4.54312
2 9.3778 9.37614 4.93092
1 9.38377 7.44081 5.32286
1 9.37563 9.38261 6.87829
2 9.3343 7.48656 7.2622
1 7.44003 7.45342 7.65859
1 9.38082 7.43573 9.20802
2 7.48646 7.40136 9.60243
1 7.30419 9.37845 9.97501
1 7.4394 7.44464 11.5421
2 7.51751 9.33857 11.9493
1 9.38329 9.37592 12.3249
1 7.44216 9.38461 13.8786
2 9.37855 9.37799 14.2743
1 9.37681 7.44665 14.6584
1 9.37885 9.37645 16.2208
2 9.37899 7.44525 16.6067
1 7.44763 7.44147 16.9935
1 9.37143 7.44871 18.5531
2 7.44431 7.44264 18.9416
1 7.44472 9.37773 19.329
1 7.43461 7.45485 20.8857
2 7.44373 9.38062 21.2745
1 9.38233 9.38796 21.6672
1 7.44998 9.37835 23.1938
2 9.33384 9.33689 23.6129
1 9.31066 7.4686 24.0292
1 9.39886 9.38467 25.5608
2 9.37591 7.44468 25.9525
1 7.46529 7.38571 26.3571
1 9.38009 7.44688 27.899
2 7.47827 11.2724 0.317989
1 7.31281 13.2606 0.62379
1 8.20303 11.313 2.18429
2 7.46782 13.1895 2.60444
1 9.38023 13.3067 3.00726
1 7.44288 13.242 4.54882
2 9.38188 13.2482 4.93528
1 9.37869 11.3128 5.31717
1 9.37436 13.2418 6.87949
2 9.37958 11.311 7.2628
1 7.43683 11.3048 7.6562
1 9.38952 11.314 9.21129
2 7.51738 11.3519 9.58488
1 7.45783 13.2507 9.99916
1 7.30107 11.3025 11.5564
2 7.42476 13.2341 11.9432
1 9.37962 13.2577 12.321
1 7.44126 13.2468 13.8777
2 9.37748 13.2085 14.2934
1 9.37987 11.3046 14.663
1 9.37758 13.237 16.2228
2 9.37738 11.3085 16.61
1 7.44733 11.315 16.9935
1 9.37772 11.3093 18.5565
2 7.44419 11.309 18.9424
1 7.44025 13.2398 19.329
1 7.44017 11.3101 20.8881
2 7.4448 13.2431 21.2786
1 9.35558 13.1731 21.6923
1 7.43508 13.2523 23.2303
2 9.33436 13.2859 23.6137
1 9.51003 11.3112 23.9891
1 9.38508 13.2404 25.5551
2 9.34357 11.3124 25.9632
1 7.4584 11.3773 26.3648
1 9.38669 11.3066 27.8706
2 7.48182 15.2212 0.259167
1 7.44576 17.1179 0.646159
1 7.43744 15.1768 2.2018
2 7.43769 17.1136 2.59043
1 9.35364 17.1088 2.98017
1 7.44116 17.1113 4.5379
2 9.34775 17.1135 4.91115
1 9.38498 15.1839 5.32505
1 9.51275 17.1095 6.89364
2 9.33634 15.1381 7.28389
1 7.44383 15.1744 7.64803
1 9.37686 15.1735 9.30062
2 7.40217 15.188 9.57355
1 7.45543 17.1106 9.99389
1 7.54027 15.1414 11.531
2 7.45746 17.1351 11.9551
1 9.37998 18.0462 12.3225
1 7.42036 17.1205 13.9035
2 9.37811 17.1203 14.2664
1 9.37702 15.1497 14.6489
1 9.37794 17.1123 16.2901
2 9.3777 15.1496 16.5762
1 7.44267 15.1849 16.9954
1 9.36434 15.3128 18.5344
2 7.40223 15.138 18.9422
1 7.57394 17.1138 19.3157
1 7.43794 15.1823 20.8873
2 7.41069 17.1152 21.2978
1 9.35165 17.1807 21.6155
1 7.43604 17.1116 23.2309
2 9.34557 17.1186 23.5725
1 9.38205 15.1888 24.0062
1 9.49994 17.1128 25.5724
2 9.33613 15.1361 25.9456
1 7.43562 15.1712 26.3378
1 9.36744 15.1914 27.8892
2 7.44172 19.0472 0.260055
1 7.44491 20.9803 0.644597
1 7.44186 19.0474 2.2078
2 7.44359 20.982 2.59376
1 9.36137 20.9798 2.96894
1 7.44414 20.9803 4.5431
2 9.43475 20.983 4.91799
1 9.32232 19.0182 5.34253
1 9.37653 20.9863 6.87885
2 9.33583 19.0891 7.26705
1 7.44249 19.0531 7.6544
1 9.38006 19.038 9.20876
2 7.44015 19.0444 9.60086
1 7.44757 20.98 9.98244
1 7.38041 19.0717 11.5266
2 7.44222 20.9819 11.9349
1 9.37589 20.994 12.3235
1 7.44454 20.9816 13.8829
2 9.37778 20.9819 14.27
1 9.37864 19.0592 14.6852
1 9.37805 20.9894 16.2211
2 9.37745 19.0785 16.5887
1 7.44759 19.0397 17
1 9.3764 18.9172 18.5686
2 7.40389 19.0895 18.9423
1 7.44288 20.9857 19.3297
1 7.44582 19.0471 20.8849
2 7.44752 20.9823 21.2778
1 9.37791 20.9827 21.6648
1 7.44664 20.9803 23.2254
2 9.37871 20.981 23.6125
1 9.38508 19.0449 24.007
1 9.37656 20.9858 25.5625
2 9.33451 19.0879 25.9457
1 7.43957 19.0482 26.3363
1 9.37015 19.041 27.8871
2 7.4426 22.9144 28.2843
1 7.44778 24.8454 0.646294
1 7.44299 22.9161 2.20805
2 7.44172 24.8497 2.59457
1 9.37455 24.8541 2.98152
1 7.44119 24.8522 4.54188
2 9.37797 24.8489 4.92912
1 9.31327 22.9419 5.3369
1 9.37932 24.8534 6.88011
2 9.37802 22.9177 7.26531
1 7.44011 22.9216 7.65942
1 9.38327 22.9141 9.21359
2 7.48624 22.8748 9.60135
1 7.31258 24.8495 9.97364
1 7.43752 22.9197 11.5446
2 7.47394 24.8515 11.9563
1 9.37956 24.8546 12.332
1 7.43883 24.8474 13.8858
2 9.33761 24.8097 14.2743
1 9.37599 22.9124 14.6576
1 9.38474 24.8525 16.2153
2 9.37879 22.9171 16.6072
1 7.44471 22.9161 16.9931
1 9.37731 22.9165 18.5546
2 7.44596 22.9157 18.9424
1 7.44545 24.8467 19.3246
1 7.44495 22.9155 20.8917
2 7.44345 24.8487 21.2763
1 9.37773 24.8384 21.6642
1 7.44485 24.8496 23.2248
2 9.37774 24.8497 23.6137
1 9.37801 22.9154 23.9997
1 9.37723 24.8466 25.5652
2 9.37749 22.9167 25.9468
1 7.44337 22.9154 26.336
1 9.37483 22.9154 27.8927
2 11.3133 -0.291015 0.258794
1 11.3129 1.63719 0.643615
1 11.311 26.7837 2.20728
2 11.3106 1.64253 2.59149
1 13.2456 1.6291 2.97695
1 11.3075 1.64168 4.54009
2 13.2103 1.6424 4.90606
1 13.2532 -0.286764 5.32256
1 13.3709 1.63337 6.88957
2 13.2034 26.7417 7.28536
1 11.3071 26.7798 7.6496
1 13.2433 -0.274436 9.28489
2 11.2821 26.7819 9.58596
1 11.3167 1.63198 9.98528
1 11.4452 26.7833 11.6416
2 11.2642 1.67279 11.8797
1 13.2373 1.52668 12.3285
1 11.3538 1.60333 13.8969
2 13.3103 1.59485 14.2972
1 13.113 26.7686 14.5683
1 13.2342 1.64204 16.2002
2 13.2743 -0.290637 16.6159
1 11.3144 26.7839 16.9179
1 13.2392 26.7822 18.5478
2 11.3159 -0.295141 18.9226
1 11.2978 1.63107 19.329
1 11.3708 26.7572 20.8624
2 11.3029 1.6291 21.2953
1 13.2208 1.56437 21.6882
1 11.3555 1.56583 23.2228
2 13.2394 1.6429 23.6159
1 13.2475 -0.300181 24.0019
1 13.1856 1.61311 25.5491
2 13.244 -0.29147 25.9489
1 11.3118 -0.295727 26.3374
1 13.2458 26.7827 27.8986
2 11.3104 3.57575 0.262255
1 11.3165 5.51064 0.650103
1 11.2507 3.5537 2.18799
2 11.3647 5.51661 2.62849
1 13.1369 6.15607 3.13067
1 11.2797 5.49529 4.64
2 13.2282 5.46683 4.86051
1 13.2441 3.55917 5.35711
1 13.1181 5.51566 6.88946
2 13.2467 3.57522 7.26867
1 11.3074 3.7122 7.64266
1 13.2411 3.57776 9.20567
2 11.3142 3.54511 9.6417
1 11.3189 5.51247 9.91656
1 11.3183 3.57955 11.6395
2 11.2608 5.50792 11.886
1 13.2457 5.61997 12.3209
1 11.3588 5.42044 13.8623
2 13.2578 5.59588 14.3174
1 13.3293 3.57737 14.6197
1 13.2391 5.49506 16.2723
2 13.2521 3.54006 16.645
1 11.3362 3.5814 16.9827
1 13.2347 3.71179 18.5334
2 11.3094 3.52591 18.9023
1 11.4357 5.50977 19.3216
1 11.1738 3.58106 20.8077
2 11.3858 5.56276 21.3728
1 13.1587 6.25965 21.7343
1 11.2622 6.34911 23.2499
2 13.1905 5.50556 23.5439
1 13.32 3.53751 24.0561
1 13.181 5.53218 25.5377
2 13.2962 3.57924 25.9646
1 11.328 3.5773 26.3733
1 13.2354 3.57495 27.9092
2 11.3135 7.44213 0.254792
1 11.3187 9.38194 0.647058
1 11.239 7.46306 2.18095
2 11.2739 9.33636 2.59556
1 13.2243 9.55014 2.99903
1 11.308 9.38908 4.54335
2 13.1997 9.38358 4.9521
1 13.3691 7.45995 5.35749
1 13.2545 9.38344 6.88104
2 13.2562 7.4863 7.3128
1 11.3081 7.31394 7.63888
1 13.243 7.43648 9.28301
2 11.2795 7.4786 9.60009
1 11.3184 9.37947 9.99228
1 11.4444 7.44753 11.5614
2 11.2707 9.41749 11.9362
1 13.2458 9.24381 12.3062
1 11.311 9.37268 13.8788
2 13.2134 9.41436 14.2687
1 13.2538 7.46596 14.5928
1 13.3779 9.38166 16.2332
2 13.2026 7.43022 16.5637
1 11.3079 7.43569 16.9935
1 13.2236 7.31163 18.5182
2 11.2713 7.48306 18.9348
1 11.309 9.38901 19.3219
1 11.2463 7.48197 20.8309
2 11.3145 9.34614 21.2591
1 13.2137 9.46009 21.6945
1 11.3098 9.51772 23.2432
2 13.2901 9.33318 23.6091
1 13.3068 7.47699 24.0545
1 13.2346 9.37747 25.5603
2 13.2477 7.4407 25.9535
1 11.3061 7.44692 26.3358
1 13.2309 7.4408 27.8602
2 11.2428 11.2738 28.252
1 11.4481 13.2418 0.644085
1 11.4587 11.317 2.21721
2 11.1905 13.2447 2.60094
1 13.2474 13.2429 2.86271
1 11.3272 13.2427 4.52775
2 13.2041 13.2061 4.98084
1 13.2404 11.3103 5.24495
1 13.2549 13.2474 6.88224
2 13.2479 11.3114 7.24988
1 11.3148 11.3119 7.64962
1 13.246 11.3125 9.20985
2 11.3162 11.3153 9.59769
1 11.2985 13.2533 10.0084
1 11.3151 11.2983 11.5463
2 11.3303 13.137 11.9497
1 13.2512 13.3783 12.3098
1 11.3138 13.2618 13.8771
2 13.2475 13.2163 14.2928
1 13.2501 11.3105 14.6663
1 13.2422 13.2524 16.2228
2 13.2041 11.3538 16.6107
1 11.3071 11.3137 16.995
1 13.2465 11.3072 18.5486
2 11.3131 11.3076 18.9598
1 11.3095 13.2147 19.3054
1 11.3094 11.3122 20.9598
2 11.2837 13.2962 21.2346
1 13.2905 13.3379 21.6885
1 11.3081 13.1249 23.2334
2 13.2156 13.2113 23.6292
1 13.1162 11.3091 24.0001
1 13.3762 13.2413 25.6515
2 13.2412 11.2338 25.9702
1 11.3175 11.3192 26.2679
1 13.247 11.441 27.9838
2 11.192 15.1465 0.271519
1 11.4658 17.109 0.566202
1 11.4472 15.1806 2.21027
2 11.177 17.1028 2.61452
1 13.2453 17.0249 2.87061
1 11.3236 17.1048 4.59353
2 13.2384 17.15 4.9594
1 13.3703 15.1783 5.22637
1 13.1186 17.1001 6.90018
2 13.2588 15.136 7.30001
1 11.3104 15.3101 7.62891
1 13.2482 15.186 9.27972
2 11.3182 15.1496 9.55928
1 11.3053 17.1025 9.93201
1 11.3472 15.1367 11.5646
2 11.2525 17.1918 11.9436
1 13.2443 16.9773 12.309
1 11.3391 17.1125 13.8964
2 13.2473 17.144 14.2928
1 13.2465 15.1791 14.5882
1 13.2465 17.1126 16.2218
2 13.2445 15.1832 16.596
1 11.3118 15.1855 16.9981
1 13.279 15.1749 18.5606
2 11.342 15.1401 18.9579
1 11.1768 17.1384 19.3017
1 11.8661 15.176 20.7743
2 11.3241 17.1006 21.2988
1 13.2742 16.9778 21.7062
1 11.3103 17.1035 23.3007
2 13.2381 17.1962 23.6226
1 13.3845 15.1827 23.9009
1 13.1205 17.1145 25.6557
2 13.2124 15.1742 25.9055
1 11.3206 15.3135 26.3399
1 13.2502 15.1755 28.0067
2 11.2374 19.1233 0.251634
1 11.3225 20.9879 0.654338
1 11.4112 18.9857 2.16436
2 11.3219 21.0042 2.66911
1 13.285 21.936 2.95099
1 11.2849 21.7276 4.53759
2 13.1927 20.9966 4.90021
1 13.2947 19.0017 5.32862
1 13.2442 20.9719 6.84716
2 13.2914 19.0921 7.26154
1 11.3136 18.9144 7.63957
1 13.2444 19.0288 9.20587
2 11.3176 19.0779 9.61903
1 11.2504 20.9666 10.0053
1 11.3756 19.0763 11.5318
2 11.3127 20.9842 11.939
1 13.2476 20.985 12.3257
1 11.3117 20.9808 13.8857
2 13.2446 20.98 14.271
1 13.2471 19.0523 14.6612
1 13.244 20.9815 16.2206
2 13.2427 19.0475 16.6054
1 11.3067 19.0427 16.9962
1 13.2391 19.0522 18.5254
2 11.3567 19.0892 18.9432
1 11.3146 20.9863 19.3296
1 11.2938 19.046 20.8873
2 11.3106 20.9818 21.2788
1 13.2219 21.0397 21.6832
1 11.3088 20.9801 23.2286
2 13.2445 20.9859 23.6113
1 13.2362 19.055 24.0134
1 13.2474 20.9916 25.5617
2 13.2843 19.1225 25.9465
1 11.318 18.9094 26.3252
1 13.2458 18.9129 27.997
2 11.3071 22.9179 28.2787
1 11.3129 24.8568 0.639815
1 11.2515 22.9509 2.15817
2 11.3086 24.8472 2.59477
1 13.2404 24.8637 2.98089
1 11.3108 24.864 4.54381
2 13.2454 24.8481 4.92689
1 13.3036 22.9496 5.36687
1 13.2426 24.8662 6.85257
2 13.2469 22.916 7.32158
1 11.2976 22.9176 7.64381
1 13.2457 23.6711 9.19077
2 11.3693 22.9161 9.5861
1 11.2604 24.8805 10.011
1 11.3152 22.9064 11.5462
2 11.272 24.7764 11.9216
1 13.2456 24.9897 12.3131
1 11.313 24.9887 13.8953
2 13.284 24.7756 14.287
1 13.2484 22.9053 14.6611
1 13.24 24.8552 16.2168
2 13.2431 22.9144 16.6096
1 11.3119 22.9153 16.9935
1 13.2453 22.9171 18.556
2 11.3107 22.9163 18.9418
1 11.3104 24.8459 19.3246
1 11.3105 22.9172 20.8898
2 11.3118 24.8504 21.2767
1 13.2382 24.8399 21.668
1 11.3117 24.8494 23.2269
2 13.2442 24.8518 23.6138
1 13.2466 22.9185 24.0005
1 13.2466 24.8494 25.5616
2 13.2421 22.9173 25.9474
1 11.3106 22.9158 26.3344
1 13.2421 22.9152 27.8936
2 15.1805 -0.287918 28.2846
1 15.1789 1.62565 0.676571
1 15.1789 -0.28795 2.20917
2 15.1836 1.6431 2.61388
1 17.128 1.63886 2.99479
1 15.1666 1.64252 4.61582
2 17.0465 1.63951 4.91853
1 17.2431 -0.284754 5.30797
1 16.994 1.64115 6.96289
2 17.1236 26.7105 7.27346
1 15.1796 -0.155893 7.6392
1 17.1121 -0.155403 9.22326
2 15.1705 26.7076 9.58964
1 15.3024 1.64035 9.89795
1 15.0611 26.79 11.5557
2 15.1893 1.65169 11.9248
1 17.1102 1.65131 12.2561
1 15.1894 1.76945 13.8946
2 17.1552 1.59755 14.2553
1 17.1175 26.7795 14.6613
1 17.1051 1.64256 16.2083
2 17.1141 -0.29101 16.6298
1 15.1791 26.7852 16.9858
1 17.0871 26.7018 18.6251
2 15.1402 -0.289454 18.9137
1 15.1887 1.6072 19.3144
1 15.2581 26.736 20.8658
2 15.1971 1.70507 21.2834
1 17.0939 2.42294 21.936
1 15.1322 1.64929 23.2466
2 17.0415 1.67157 23.5992
1 17.2521 26.7422 24.0024
1 17.2913 1.61548 25.5536
2 17.0405 26.7486 25.9619
1 15.1689 26.7671 26.3382
1 17.1207 -0.285508 27.893
2 15.1841 3.57288 28.2275
1 15.1667 5.49923 0.661133
1 15.2408 3.54737 2.18324
2 15.119 5.48308 2.57241
1 17.1734 5.60055 3.01696
1 15.1882 5.65462 4.55225
2 17.0478 5.41867 4.9462
1 17.2509 3.55417 5.31158
1 17.1242 5.53261 6.85715
2 17.1205 3.65523 7.27642
1 15.1851 3.43542 7.64801
1 17.1053 3.44161 9.22974
2 15.1338 3.64844 9.63666
1 15.1723 5.52375 9.99024
1 15.1913 3.57088 11.6148
2 15.2252 5.5033 11.9138
1 17.1178 5.50883 12.3295
1 15.1725 5.37883 13.8904
2 17.0967 5.49899 14.2629
1 16.9747 3.56704 14.645
1 17.1283 5.50559 16.1999
2 17.1458 3.57688 16.6137
1 15.1772 3.57788 16.9189
1 17.0956 3.62503 18.4696
2 15.2227 3.53575 18.9689
1 15.0301 5.51281 19.2901
1 15.8535 3.73019 20.7508
2 15.1784 5.50948 21.2879
1 17.1435 5.57184 21.7525
1 15.1876 5.50688 23.235
2 17.1134 5.51463 23.623
1 17.114 3.59814 24.0566
1 17.1714 5.53927 25.5503
2 17.0174 3.61736 25.9645
1 15.1799 4.32426 26.3605
1 17.1335 3.56685 27.9025
2 15.1762 7.44119 0.2867
1 15.1759 9.40206 0.621268
1 15.7643 7.42606 2.14955
2 15.2066 9.35492 2.55396
1 17.1638 9.27901 3.00484
1 15.1779 9.23295 4.54534
2 17.1075 9.50865 4.94001
1 17.1271 7.4426 5.17075
1 17.0539 9.33653 6.84219
2 17.116 7.44541 7.31778
1 15.1833 7.44499 7.57789
1 17.1178 7.44325 9.22172
2 15.2086 7.4469 9.55977
1 15.171 9.37302 9.99214
1 15.0446 7.4464 11.558
2 15.2169 9.41737 11.9523
1 17.093 9.38759 12.3016
1 15.1743 9.37246 13.9482
2 17.1596 9.39935 14.231
1 17.2017 7.40777 14.6791
1 16.9896 9.3757 16.2287
2 17.1115 7.40014 16.6325
1 15.1716 7.57169 16.9852
1 17.1309 7.45968 18.5159
2 15.2168 7.45576 19.0032
1 15.1994 9.40518 19.2379
1 15.9264 7.30963 20.7673
2 15.2186 9.33488 21.2598
1 17.1045 10.2107 21.6832
1 15.174 9.3714 23.2283
2 17.1164 9.38184 23.5667
1 17.1093 7.43488 24.0403
1 17.1157 9.37445 25.5612
2 17.1136 7.44494 25.9608
1 15.1839 7.45763 26.3386
1 17.1448 7.44602 27.9068
2 15.2509 11.2467 28.2824
1 15.0363 13.2528 0.557939
1 15.0417 11.3201 2.21217
2 15.3021 13.2143 2.57072
1 17.1255 13.2573 2.98477
1 15.1613 13.3817 4.53653
2 17.1534 13.2101 4.93106
1 17.1183 11.3302 5.32422
1 17.0467 13.2736 6.85383
2 17.167 11.3101 7.28128
1 15.1796 11.3109 7.65193
1 17.0979 11.3117 9.22474
2 15.1778 11.3116 9.59897
1 15.1713 13.2512 9.99122
1 15.1829 11.3113 11.5489
2 15.2226 13.2053 11.9357
1 17.1174 13.2428 12.3242
1 15.1755 13.2563 13.879
2 17.1107 13.248 14.2719
1 17.042 11.3326 14.684
1 17.1154 13.25 16.2227
2 17.1514 11.3531 16.6082
1 15.1775 11.1794 16.9804
1 17.1088 11.3103 18.5484
2 15.1755 11.3434 18.9593
1 15.1718 13.2583 19.3349
1 15.1215 11.3209 20.8688
2 15.2312 13.1615 21.2701
1 17.1157 13.258 21.6685
1 15.1789 13.3943 23.3113
2 17.1857 13.2072 23.5946
1 17.1081 11.3269 24.0376
1 16.9857 13.2519 25.5711
2 17.1554 11.27 25.9499
1 15.1774 11.4395 26.3318
1 17.1206 11.3206 27.8908
2 15.2982 15.2139 0.27125
1 15.0357 17.1138 0.646676
1 15.0377 15.1724 2.28928