1737
Atoms. Timestep: 805
1 -0.322214 1.78076 0.742556
1 -0.328406 26.7318 2.44273
2 26.775 1.49382 2.63505
1 1.60361 1.74127 3.07559
1 -0.324185 1.74645 4.67818
2 1.67609 1.62954 5.05796
1 1.60785 -0.237617 5.41841
1 1.60078 1.5047 6.96348
2 1.57487 26.7632 7.34773
1 -0.334059 -0.326411 7.55476
1 1.63527 -0.325281 9.26288
1 -0.324289 1.59707 9.9229
1 26.8234 26.7137 11.7178
1 1.71236 1.60548 12.3388
1 -0.218532 1.60242 14.1326
2 1.6708 1.6079 14.2563
1 1.58495 -0.31981 14.6531
1 1.44989 1.59477 16.323
2 1.74231 26.7892 16.5409
1 26.7506 26.7718 16.8761
1 1.57445 -0.171606 18.4984
2 26.8199 26.7778 18.9614
1 -0.180872 1.59601 19.1456
1 -0.291753 26.7889 20.8501
2 26.7874 1.59941 21.2347
1 1.59464 1.60944 21.4471
1 26.7722 1.6726 23.2433
2 1.57233 1.68725 23.4343
1 1.74894 -0.181812 23.9012
1 1.4664 1.65646 25.4765
2 1.54503 26.77 25.8125
1 26.8011 -0.198754 25.9969
1 1.68454 26.7838 27.7437
2 26.7955 3.63426 28.0918
1 -0.320293 5.48833 0.809572
1 -0.187812 3.5536 2.45731
2 26.776 5.57496 2.73074
1 1.6135 5.34355 3.08543
1 -0.334092 5.34334 4.69195
2 1.6717 5.53637 5.05221
1 1.49036 3.56478 5.06682
1 1.60391 5.56692 6.95645
1 26.717 3.54243 7.50074
1 1.69023 3.54903 9.38399
1 -0.32818 5.59087 10.044
1 -0.327081 3.6529 11.7097
2 -0.326058 5.51257 11.9662
1 1.60674 5.474 12.3286
1 26.8221 5.47446 13.9024
2 1.60635 5.49175 14.2647
1 1.59674 3.53343 14.6492
1 1.61287 5.50244 16.206
2 1.65932 3.62963 16.563
1 -0.330542 3.38227 16.932
1 1.59914 3.39107 18.528
2 26.7654 3.63055 18.8927
1 26.8149 5.50411 19.2615
1 -0.326488 3.52711 20.8197
2 -0.272817 5.42837 21.1957
1 1.61087 5.48593 21.5706
1 26.7947 5.43556 23.142
2 1.59907 5.49315 23.5059
1 1.63922 3.55431 23.8951
1 1.67633 5.46878 25.4519
2 1.49832 3.62106 25.7941
1 -0.264143 3.40655 26.209
1 1.73644 3.54346 27.7242
2 -0.324586 7.42936 28.1173
1 26.8156 9.35887 0.79579
1 26.8193 7.44773 2.36812
2 -0.322517 9.36461 2.76482
1 1.61427 9.38007 3.11526
1 26.8245 9.37893 4.78328
2 1.6477 9.3717 5.0166
1 1.61468 7.43562 5.4178
1 1.44038 9.32204 6.97595
2 1.69182 7.42136 7.35863
1 -0.191227 7.55903 7.74521
1 1.6296 7.42557 9.29266
2 26.8302 7.44078 9.64405
1 -0.285286 9.40678 9.90064
1 26.8099 7.44516 11.5771
2 26.8269 9.3629 11.9393
1 1.60662 9.37065 12.3264
1 -0.318502 9.36741 13.8963
2 1.6085 9.37029 14.2671
1 1.61044 7.43042 14.6378
1 1.59742 9.36801 16.2146
2 1.60675 7.42815 16.5728
1 -0.336262 7.4371 16.9559
1 1.59718 7.44711 18.5186
2 -0.299827 7.45068 18.8671
1 26.7438 9.52175 19.3933
1 26.6925 7.38324 20.8254
2 -0.259775 9.19245 21.2389
1 1.58949 9.42767 21.5402
1 -0.302742 9.38302 23.1056
2 1.61202 9.36427 23.4995
1 1.59613 7.42184 23.8692
1 1.60837 9.36186 25.4367
2 1.611 7.42115 25.8094
1 26.8218 7.41981 26.174
1 1.60743 7.42758 27.7477
2 26.7754 11.24 28.1086
1 -0.185783 13.3694 0.83539
1 -0.338132 11.2667 2.3583
2 26.7286 13.0606 2.6396
1 1.43318 13.3187 3.05778
2 1.81388 13.2577 4.86586
1 1.5282 11.4985 5.43544
2 1.68454 11.1049 7.1943
1 -0.124485 11.1886 7.83937
2 26.5478 11.2953 9.73452
1 -0.146795 13.1657 9.99296
1 -0.291031 11.306 11.5771
2 26.7819 13.2414 12.0344
1 1.61083 13.2573 12.2007
1 -0.316322 13.2465 14.0229
2 1.65212 13.2444 14.2055
1 1.59328 11.3133 14.6579
1 1.48358 13.2373 16.2123
2 1.67043 11.258 16.5777
1 26.6718 11.4751 17.0196
1 1.68991 11.3193 18.5044
2 -0.0738248 11.2194 18.7959
1 26.5992 13.0125 19.2686
2 26.8058 13.4611 21.2677
1 1.54923 13.1862 21.5504
1 -0.227058 13.2232 23.1181
2 1.66602 13.2441 23.5463
1 1.6 11.3132 23.8646
1 1.60433 13.2481 25.545
2 1.65959 11.2718 25.7727
1 -0.218866 11.3218 26.2105
1 1.59973 11.4679 27.7611
2 26.7767 15.2463 27.9827
1 26.8226 17.0657 0.714556
1 1.69573 17.0709 3.11691
1 -0.329205 17.0826 4.81542
2 1.60366 17.111 5.03215
1 1.52113 14.9917 5.52311
1 1.60852 17.201 6.95224
2 1.61564 15.438 7.37427
1 -0.280587 15.1067 7.6996
1 1.61748 15.0597 9.25631
2 -0.317968 15.1747 9.64221
1 26.6521 17.1262 10.016
1 -0.324382 15.1586 11.5649
2 -0.265252 17.0699 11.9751
1 1.5688 17.1224 12.3509
1 26.8033 17.1296 13.8966
2 1.62451 17.1257 14.2705
1 1.62174 15.1854 14.6533
1 1.63022 17.1237 16.2022
2 1.69369 15.2319 16.5834
1 26.8167 15.0169 16.9548
1 1.55605 15.1625 18.5018
2 -0.298929 15.2887 18.8935
1 -0.326851 17.1563 19.2584
1 26.8101 15.2286 20.7905
2 26.8159 17.1446 21.1952
1 1.61487 17.1201 21.554
1 -0.29353 17.1239 23.1266
2 1.61306 17.1317 23.4991
1 1.60482 15.1759 23.8559
1 1.61467 17.1314 25.4386
2 1.61087 15.2177 25.7549
1 -0.234861 15.179 26.1513
1 1.60761 15.0398 27.7586
2 -0.330141 19.0378 0.442812
1 26.758 20.9765 0.806636
1 -0.327163 19.1751 2.35619
2 -0.335865 21.0861 2.73985
1 1.59854 21.0116 3.09248
1 -0.321256 21.0141 4.66278
2 1.61439 20.9447 5.02578
1 1.60232 19.0548 5.39526
1 1.61189 21.0033 6.96861
2 1.61444 19.0896 7.34018
1 26.8041 19.0624 7.7271
1 1.62009 19.0575 9.28655
2 -0.248978 19.1083 9.6429
1 26.8157 20.9967 10.0328
1 26.6678 19.0682 11.5995
2 -0.276597 21.0614 11.9614
1 1.61506 20.9971 12.3354
1 26.8159 21.0078 13.8947
2 1.60291 20.9987 14.2759
1 1.61824 19.0564 14.6393
1 1.60964 21.0027 16.2126
2 1.61113 19.0647 16.5793
1 -0.31713 19.0617 16.948
1 1.61664 19.0648 18.5205
2 -0.324796 19.0676 18.8888
1 26.8077 21.0081 19.2162
1 26.7978 19.0879 20.8439
2 -0.290601 21.0077 21.0676
1 1.50437 21.0239 21.6795
2 1.80917 20.9421 23.5381
1 1.5595 19.0871 23.8644
1 1.57294 21.0146 25.4223
2 1.60823 19.0718 25.8128
1 -0.325703 19.0501 26.1856
1 1.60171 19.0624 27.7514
2 -0.104046 22.7278 28.1093
1 26.785 23.0933 2.20328
2 -0.317558 24.8797 2.87041
1 1.59589 24.8807 2.91793
1 26.7535 24.885 4.71087
1 1.60759 22.8356 5.41425
1 1.61938 24.8708 7.14152
2 1.55701 22.9415 7.32636
1 -0.333692 22.95 7.71738
1 1.61104 22.9632 9.28368
2 -0.327256 22.8896 9.64661
1 -0.327237 24.769 10.0384
1 -0.327457 22.9485 11.5956
2 -0.325006 24.8604 11.9839
1 1.59487 24.894 12.3295
1 26.8038 24.8922 14.0282
2 1.64042 24.8794 14.2454
1 1.61254 22.9429 14.6485
1 1.53946 24.8757 16.2181
2 1.65868 22.8907 16.5884
1 26.7645 23.1731 16.9284
1 1.48596 22.9429 18.49
2 26.7689 22.9127 18.9269
1 -0.326338 24.8704 19.176
1 -0.310677 22.9641 20.8596
2 26.6702 24.8775 21.1397
1 26.8518 24.8781 23.0244
1 1.54139 22.7988 23.8729
1 1.61025 24.8629 25.5857
2 1.59902 22.9462 25.8008
1 26.6701 22.9742 26.3221
1 1.64608 23.01 27.7373
2 3.6241 -0.324417 28.0446
1 3.55137 1.61427 0.787241
1 3.56194 26.8151 2.34414
2 3.59729 1.55253 2.73232
1 5.49718 1.60603 3.10593
1 3.55313 1.58903 4.66585
2 5.44509 1.55128 5.0629
1 5.4895 26.8121 5.25875
1 5.48877 1.7105 6.98381
1 3.50322 26.8134 7.80477
2 3.40751 -0.319821 9.68571
1 3.59368 1.57882 10.0074
1 3.74386 -0.326215 11.5758
2 3.56164 1.66928 11.9461
1 5.50228 1.48504 12.3199
1 3.56984 1.59805 13.8918
2 5.48219 1.64785 14.3254
1 5.4936 26.8192 14.5252
1 5.49708 1.60101 16.3312
2 5.4745 26.8219 16.5146
1 3.57389 -0.327617 16.9733
1 5.32861 26.8166 18.6563
2 3.40939 26.781 18.9239
1 3.57136 1.61756 19.2096
1 3.69449 -0.225733 20.8818
2 3.51618 1.71151 21.2543
1 5.48721 1.52859 21.4446
1 3.55486 1.43211 23.1606
2 5.48897 1.71407 23.4733
1 5.46815 26.7817 23.4551
1 5.48501 1.71247 25.4082
1 3.40496 26.8177 26.1097
1 5.57684 -0.324123 27.8231
2 3.59366 3.544 0.568779
1 3.54116 5.47064 0.792414
1 3.4207 3.54895 2.42053
2 3.59446 5.54395 2.73048
1 5.4771 5.51104 3.11332
1 3.56663 5.5611 4.67724
2 5.38382 5.30689 5.01001
1 5.64452 3.5001 5.41901
1 5.49875 5.61707 6.86218
2 5.55852 3.62155 7.38647
1 3.67332 3.55991 7.72998
1 5.40918 3.55979 9.2829
2 3.52941 3.5436 9.65793
1 3.54064 5.48372 10.0155
1 3.52203 3.55275 11.5832
2 3.537 5.49145 11.9627
1 5.42387 5.48527 12.3485
1 3.54574 5.48973 13.9133
2 5.50635 5.49595 14.2894
1 5.4989 3.56201 14.6271
1 5.48581 5.47847 16.307
2 5.48462 3.54547 16.5162
1 3.56345 3.54319 16.9752
1 5.48674 3.53678 18.5671
2 3.47966 3.62694 18.8857
1 3.70772 5.50332 19.2427
1 3.54601 3.5601 20.8001
2 3.51671 5.49569 21.2185
1 5.49028 5.48859 21.4754
1 3.54383 5.48116 23.1375
2 5.43881 5.44045 23.4685
1 5.45158 3.56018 23.8921
1 5.42947 5.46703 25.4392
2 5.68244 3.59914 25.7669
1 5.35914 3.54301 27.6253
2 3.54235 7.41723 0.430414
1 3.54979 9.34039 0.798656
1 3.55336 7.4307 2.36793
2 3.54963 9.37079 2.73233
1 5.48831 9.34446 3.12139
1 3.58182 9.32928 4.68821
2 5.49566 9.58427 4.99153
1 5.47853 9.24859 6.85644
2 5.43809 7.43282 7.50101
1 3.56314 7.41723 7.70737
1 5.48845 7.42652 9.35134
2 3.54524 7.43514 9.6619
1 3.49569 9.40029 10.0082
1 3.54942 7.43352 11.5897
2 3.54189 9.36466 11.9605
1 5.48848 9.36724 12.3255
1 3.54154 9.369 13.8983
2 5.45091 9.36982 14.2457
1 5.49564 7.42044 14.6405
1 5.65867 9.3693 16.2108
2 5.40658 7.41229 16.5507
1 3.53673 7.42528 16.9557
1 5.46474 7.264 18.535
2 3.49785 7.48624 18.89
1 3.54981 9.37741 19.2596
1 3.54677 7.43261 20.823
2 3.55171 9.37332 21.1937
1 5.50266 9.36828 21.5884
1 3.5187 9.36378 23.1272
2 5.36323 9.36497 23.5107
1 5.64441 7.42338 23.8592
1 5.50057 9.35304 25.4282
2 5.45026 7.41353 25.8295
1 3.54291 7.42742 26.1836
1 5.48462 7.42503 27.7482
2 3.54413 11.1793 28.1112
1 3.54812 13.2501 0.737868
1 3.53065 11.3315 2.34892
2 3.53986 13.2511 2.79306
1 5.48946 13.2467 2.9991
1 3.60874 13.242 4.67933
2 5.50677 13.2622 5.01626
1 5.47817 11.3657 5.433
1 5.4773 13.2433 6.98532
2 5.46624 11.2966 7.34649
1 3.36216 11.3938 7.87044
1 5.57472 11.3004 9.25659
2 3.82371 11.2654 9.71331
1 3.37039 13.1753 10.0028
1 3.52 11.3145 11.5695
2 3.60478 13.2571 11.9846
1 5.53432 13.3064 12.3191
1 3.558 13.2396 13.8957
2 5.4909 13.2457 14.2743
1 5.49114 11.3125 14.6456
1 5.49962 13.2701 16.2223
2 5.44594 11.3549 16.5795
1 3.55896 11.3011 16.943
1 5.50451 11.3276 18.5169
2 3.57598 11.3181 18.8881
1 3.6125 13.2848 19.2494
1 3.55314 11.3139 20.8195
2 3.48277 13.2397 21.1875
1 5.3932 13.2428 21.612
1 3.53606 13.2427 23.1278
2 5.39163 13.281 23.5813
1 5.64793 11.3024 23.8428
1 5.48923 13.1041 25.4906
2 5.46922 11.2336 25.8104
1 3.55491 11.3191 26.1945
1 5.49401 11.4612 27.751
2 3.58144 15.3199 28.1033
1 3.54288 17.1556 0.795691
1 3.52607 15.1633 2.34676
2 3.59428 17.122 2.72247
1 5.48776 17.1188 3.10402
1 3.5349 17.108 4.66525
2 5.4819 17.1262 5.03936
1 5.48794 15.1857 5.40684
1 5.47992 17.1041 6.98037
2 5.46608 15.1748 7.34591
1 3.50605 15.1163 7.71098
1 5.49755 15.1856 9.29827
2 3.60888 15.2222 9.64543
1 3.56999 17.1199 10.0392
1 3.60605 15.2089 11.5808
2 3.34504 17.124 11.9185
1 3.68061 17.1229 13.7805
2 5.4814 17.1344 14.4426
1 5.4951 15.2018 14.5828
1 5.4948 17.1103 16.2863
2 5.48739 15.1844 16.4489
1 3.67293 15.1899 17.0692
2 3.35465 15.1807 18.9349
1 3.59807 17.0769 19.2492
1 3.56956 15.1784 20.812
2 3.55443 17.1286 21.1964
1 5.4973 17.1076 21.5604
1 3.53603 17.1369 23.1329
2 5.43067 17.1429 23.5009
1 5.62395 15.1898 23.6608
1 5.50499 17.225 25.4268
1 3.45582 15.1738 26.205
1 5.49047 15.0665 27.9465
2 3.54646 19.0731 28.1155
1 3.5463 21.006 0.796727
1 3.53909 19.0639 2.36571
2 3.54825 21 2.73769
1 5.47999 21.0114 3.11742
1 3.54984 21.015 4.67611
2 5.48764 21.0076 5.10965
1 5.48721 19.0556 5.40551
1 5.4897 20.8599 7.04047
2 5.48943 18.988 7.33173
1 3.55656 19.0725 7.72884
1 5.49544 19.2069 9.29502
2 3.50668 19.0157 9.6574
1 3.70231 21.0002 10.0129
1 3.60887 19.0268 11.5976
2 3.51991 20.9916 11.9828
1 5.48576 21.0034 12.2461
1 3.55208 21.0078 13.905
2 5.49099 20.9972 14.2383
1 5.49268 19.0486 14.6304
1 5.48348 20.991 16.1959
2 5.48815 19.0692 16.5812
1 3.54969 19.0639 16.9445
1 5.48833 19.0634 18.5163
2 3.55553 19.0007 18.873
1 3.53902 20.8959 19.2779
1 3.53962 19.0588 20.8144
2 3.53306 20.9866 21.1922
1 5.48376 21.0241 21.5591
1 3.59896 21.0182 23.1156
2 5.5032 20.9923 23.4997
1 5.48786 19.0583 23.8806
1 5.49055 21.006 25.4386
2 5.49276 19.1225 25.8214
1 3.54743 19.0605 26.1743
1 5.48575 19.0629 27.7432
2 3.56102 22.9477 0.423108
1 3.54479 24.895 0.791332
1 3.54442 22.9458 2.36472
2 3.54102 24.8814 2.74333
1 5.48933 24.8829 3.11296
1 3.66202 24.8817 4.66205
2 5.54311 24.8796 5.08934
1 5.48954 22.9414 5.26332
1 5.49773 24.8922 6.97975
1 3.44391 22.9412 7.73638
1 5.48759 22.8278 9.47467
2 3.53313 23.0092 9.64999
1 3.59902 24.9334 10.0124
1 3.5431 22.9352 11.5838
2 3.50142 24.8239 11.955
1 5.48738 25.0121 12.3321
1 3.55979 24.8905 13.8902
2 5.48734 24.8367 14.3316
1 5.48135 22.9364 14.6506
1 5.4831 24.8837 16.3471
2 5.49809 22.8855 16.5841
1 3.56161 22.9527 16.8021
1 5.61878 23.0891 18.4867
1 3.70468 24.967 19.1841
1 3.55172 22.8844 20.9489
1 3.74721 25.0086 23.1047
2 5.51133 24.7759 23.6597
1 5.4809 22.928 23.8736
1 5.54535 24.8174 25.484
2 5.49841 22.891 25.8255
1 3.55073 22.9533 26.1655
1 5.49565 22.9417 27.7454
2 7.45147 -0.333357 0.549348
1 7.42282 1.60663 0.78634
1 7.41902 26.804 2.40758
2 7.38278 1.52964 2.71989
1 9.37403 1.73655 3.04506
1 7.43909 1.77689 4.68279
2 9.41267 1.4845 4.88836
1 9.36082 -0.238424 5.54022
2 9.40544 26.5987 7.38907
1 7.52107 -0.284252 7.78781
1 9.4172 -0.28986 9.25619
2 7.62649 26.768 9.66799
1 7.36745 1.45872 10.0291
1 7.22412 -0.327941 11.558
2 7.47784 1.67936 11.9403
1 9.35669 1.6119 12.3257
1 7.40765 1.60841 13.8947
2 9.29308 1.65998 14.2765
1 9.54152 -0.327659 14.6346
1 9.35994 1.58935 16.2128
2 9.31937 26.8101 16.613
1 7.39405 -0.331483 16.8135
1 9.47105 -0.333936 18.5223
1 7.25114 1.73163 19.276
1 7.23649 26.7463 21.1911
2 7.4658 1.63745 21.159
1 9.29787 1.6473 21.5734
1 7.4238 1.46843 23.149
2 9.40337 1.64648 23.4898
1 9.16863 26.8175 23.8911
1 9.37094 1.59792 25.4559
2 9.59104 -0.306417 25.7712
1 9.28919 26.7754 27.6444
2 7.29903 3.50053 28.1231
1 7.56853 5.46301 0.784618
1 7.58049 3.54796 2.47538
2 7.3862 5.59219 2.75319
1 9.36823 5.36098 2.76705
1 7.26418 5.38059 4.65745
1 9.22298 3.25912 5.49977
1 9.36732 5.47403 7.0418
2 9.36973 3.69908 7.37971
1 7.4769 3.51237 7.37117
1 9.46433 3.53163 9.25768
1 7.45771 5.59918 10.0393
1 7.48801 3.59341 11.763
2 7.20002 5.48551 11.891
1 7.5098 5.47439 13.7632
2 9.21601 5.49512 14.4652
1 9.34411 3.55713 14.628
1 9.51861 5.34127 16.2625
2 9.30822 3.45935 16.5792
1 7.4057 3.54344 16.9638
1 9.40187 3.54437 18.5108
2 7.55808 3.58256 18.8842
1 7.28937 5.4951 19.2455
1 7.43288 3.55895 20.821
2 7.46777 5.44381 21.2064
1 9.39909 5.44628 21.5589
1 7.43091 5.64898 23.1506
2 9.42108 5.43496 23.5311
1 9.41041 3.54377 23.8911
1 9.43061 5.44083 25.5573
2 9.17457 3.50267 25.7607
1 7.4331 3.5454 26.228
1 9.49528 3.69953 27.7298
2 7.37546 7.48252 28.0875
1 7.42904 9.37444 0.782996
1 7.42363 7.44738 2.34779
2 7.43035 9.37475 2.7329
1 9.36093 9.36249 3.1129
1 7.3959 9.29172 4.6863
2 9.36018 9.39528 5.04089
1 9.35972 7.50916 5.28948
1 9.37 9.4627 6.96142
1 7.30889 7.42791 7.72027
1 9.3596 7.41843 9.44539
2 7.4356 7.48895 9.63658
1 7.43141 9.36719 10.0268
1 7.4971 7.38862 11.5992
2 7.42723 9.33377 11.9916
1 9.36016 9.36357 12.3428
1 7.41955 9.3697 14.0049
2 9.3585 9.39059 14.2683
1 9.50056 7.42263 14.4267
1 9.23384 9.50869 16.1726
1 7.2825 7.56358 17.0027
1 9.30988 7.40368 18.5924
2 7.43674 7.43096 18.9211
1 7.45906 9.34484 19.1389
1 7.45008 7.4157 20.9156
2 7.41854 9.32547 21.0925
1 9.35093 9.37102 21.5874
1 7.43748 9.39033 23.1761
2 9.48313 9.37748 23.5091
1 9.21801 7.40915 23.8513
1 9.35842 9.31365 25.4115
2 9.40762 7.44388 25.8057
1 7.42915 7.40863 26.0883
1 9.35947 7.30114 27.7493
2 7.47612 11.2637 28.0922
1 7.26218 13.2453 0.765361
1 7.42304 11.3082 2.35371
2 7.4658 13.2455 2.73725
1 9.37943 13.244 3.10829
1 7.42122 13.2467 4.66255
2 9.33091 13.2416 5.02471
1 9.36325 11.3162 5.42352
1 9.52913 13.2655 6.99621
2 9.3108 11.3087 7.35759
1 7.41845 11.301 7.71276
1 9.3599 11.3291 9.28307
2 7.44719 11.3298 9.66121
1 7.42817 13.3736 10.1579
1 7.42819 11.2403 11.5851
2 7.43281 13.0253 12.0167
1 9.33434 13.3072 12.3126
1 7.42915 13.2707 13.8883
2 9.36901 13.2526 14.271
1 9.36038 11.3271 14.6318
1 9.35571 13.2709 16.2163
2 9.4217 11.3885 16.5862
1 7.4298 11.1441 16.9492
1 9.35614 11.3195 18.5202
2 7.4299 11.3092 18.9753
1 7.39319 13.1822 19.1493
1 7.43005 11.1745 20.9003
1 9.46396 13.2453 21.5202
1 7.44286 13.25 23.4056
2 9.38077 13.1763 23.338
1 9.195 11.399 23.9609
2 9.39336 11.0921 25.8736
1 7.47137 11.372 26.0888
1 9.36865 11.3296 27.7348
2 7.44137 15.2443 28.0522
1 7.44499 17.1374 0.789785
1 7.4226 15.1742 2.34577
2 7.37685 17.0689 2.72842
1 9.36063 17.2714 3.09026
1 7.42936 17.1241 4.66182
2 9.35042 17.0872 5.06009
1 9.38787 15.1751 5.43034
1 9.37372 17.1324 6.98518
2 9.31429 15.2381 7.35228
1 7.40765 15.1859 7.64088
1 9.27126 15.1854 9.27636
2 7.40248 15.1752 9.48656
1 7.3866 16.9747 10.1901
2 7.6489 17.3545 11.97
1 9.39922 17.0605 12.3371
1 7.27539 17.0819 13.7448
2 9.35574 17.1214 14.2723
1 9.34353 15.196 14.642
1 9.35189 17.123 16.203
2 9.34247 15.1972 16.5887
1 7.34913 15.18 16.8691
1 9.4604 15.1855 18.5049
1 7.3849 17.2154 19.2565
1 7.4136 15.2888 21.01
2 7.42783 17.1831 21.171
1 9.34863 17.1059 21.5978
1 7.44542 16.9294 23.1564
2 9.36051 17.3126 23.4973
1 9.37192 15.0484 23.9269
1 9.37179 17.1173 25.3816
2 9.36666 15.3774 25.8962
1 7.58269 15.1022 26.1125
1 9.36589 15.1612 27.7566
2 7.38856 19.0697 28.0979
1 7.43892 21.0051 0.798072
1 7.57851 19.0663 2.36857
2 7.37294 21.0542 2.73333
1 9.37349 20.8619 3.09545
1 7.42661 21.0061 4.66691
2 9.36544 21.038 5.06215
1 9.36561 19.0665 5.31283
1 9.3676 20.9987 6.97978
2 9.36545 19.0685 7.31579
1 7.42737 19.0582 7.7337
1 9.36091 19.0391 9.28719
2 7.47146 18.9843 9.6588
1 7.27679 21.0082 10.0041
1 7.3672 19.1007 11.579
2 7.46134 21.0086 11.9779
1 9.37768 20.9963 12.3395
1 7.42492 21.004 13.9001
2 9.37184 20.9997 14.2774
1 9.3533 19.0519 14.6346
1 9.37384 21.0016 16.2113
2 9.37863 19.0634 16.5761
1 7.42828 19.0645 16.9416
1 9.36057 19.0547 18.5091
2 7.42468 19.1081 18.8717
1 7.43443 20.9991 19.2602
1 7.43237 19.0743 20.8214
2 7.41103 21.0084 21.1935
1 9.37024 21.0195 21.4936
1 7.44226 21 23.1374
2 9.36712 21.0136 23.3379
1 9.36787 19.2165 23.9991
2 9.30695 18.8674 25.8822
1 7.45191 19.1127 26.1699
1 9.36321 19.0803 27.8157
2 7.43693 22.9476 0.425353
1 7.42729 24.8941 0.777822
1 7.42341 22.9529 2.3587
2 7.42565 24.8731 2.73772
1 9.38134 24.8932 3.09951
1 7.44152 24.8865 4.6803
2 9.35882 24.8972 5.04793
1 9.36795 22.9436 5.40047
1 9.34298 24.8181 6.9743
2 9.42441 22.9275 7.33571
1 7.52688 22.9366 7.73646
1 9.357 22.9527 9.28339
2 7.43983 23.0085 9.65168
1 7.37438 24.9205 10.0113
1 7.43488 22.9373 11.5861
2 7.47077 24.8312 11.9569
1 9.36488 24.8836 12.334
1 7.41239 24.8917 13.8941
2 9.31055 24.8383 14.2752
1 9.36636 22.9371 14.6411
1 9.36726 24.8851 16.2079
2 9.37954 22.9438 16.5772
1 7.44448 22.9446 16.9409
1 9.38032 22.9543 18.5203
2 7.49806 22.8635 18.8854
1 7.19639 24.7571 19.3163
1 7.3712 22.9633 20.8487
2 7.68591 24.853 21.1005
1 9.38305 24.8776 21.6362
1 7.29001 25.0166 23.0256
2 9.44527 24.7997 23.5151
1 9.37462 22.8308 23.9956
1 9.29379 24.9778 25.4199
2 9.35812 23.1773 25.8564
1 7.46977 22.8923 26.173
1 9.40522 22.978 27.7401
2 11.2802 -0.114624 28.0723
1 11.2961 1.66896 0.798507
1 11.296 26.6903 2.23084
2 11.365 1.52074 2.7226
1 13.2472 1.60085 3.09296
1 11.306 1.5949 4.65809
2 13.2482 1.61805 5.03603
1 13.2498 26.8171 5.40697
1 13.2426 1.61825 6.97378
2 13.2371 -0.288771 7.32765
1 11.286 -0.274981 7.71344
1 13.2376 26.6759 9.2979
2 11.2654 -0.273694 9.69166
1 11.3069 1.62058 10.0372
1 11.3294 26.8205 11.6919
2 11.2987 1.66289 11.9668
1 13.2391 1.62766 12.1966
1 11.185 1.491 13.8798
1 13.1501 26.6308 14.644
1 13.231 1.67962 16.2901
2 13.2351 -0.25855 16.5342
1 11.3065 -0.309568 16.8745
1 13.249 26.7047 18.5165
2 11.3274 -0.235278 18.901
1 11.3172 1.67872 19.1946
1 11.3768 26.6749 20.8178
1 13.3747 1.79382 21.6082
1 11.2779 1.64241 23.2738
2 13.1109 1.5523 23.4789
1 13.3992 26.8087 23.8567
1 13.3674 1.64763 25.4438
2 13.1905 26.7771 25.8309
1 11.3569 26.8007 26.2112
1 13.2218 26.7781 27.7606
2 11.4126 3.52951 0.589631
1 11.1688 5.47499 0.766587
1 11.1769 3.55295 2.4339
2 11.3602 5.54761 2.7514
1 13.2541 5.48906 3.11911
1 11.3784 5.47623 4.65527
2 13.2435 5.48229 5.06601
1 13.2532 3.55236 5.41165
1 13.2324 5.47945 6.98382
2 13.2266 3.54704 7.35069
1 11.2598 3.50924 7.71454
1 13.243 3.55226 9.28945
2 11.3566 3.54581 9.66535
1 11.2618 5.48655 10.0512
1 11.263 3.58654 11.6059
2 11.4973 5.45149 11.9589
1 13.2982 5.47953 12.2232
1 11.0106 5.63146 13.8113
1 13.0741 5.42125 16.346
2 13.2962 3.53784 16.6639
1 11.3356 3.69403 16.8777
1 13.2299 3.53412 18.6609
2 11.2806 3.47297 18.7265
1 11.3162 5.18131 19.3928
2 11.2638 5.72211 21.1696
1 13.1752 5.25773 21.528
1 11.3103 5.45729 23.0943
2 13.1972 5.5669 23.5089
1 13.3637 3.53944 23.7771
1 13.1903 5.45377 25.4336
2 13.3723 3.61208 25.7596
1 13.1609 3.539 27.6135
2 11.3613 7.48116 0.431269
1 11.3055 9.38085 0.791424
1 11.3059 7.43275 2.35691
2 11.3029 9.37556 2.73607
1 13.2399 9.36344 3.10199
1 11.2989 9.34469 4.67621
2 13.2227 9.37175 5.06805
1 13.2445 7.42697 5.40474
1 13.2445 9.35862 7.08063
2 13.3 7.38811 7.31633
1 11.4187 7.42271 7.74709
1 13.2346 7.57684 9.29883
2 11.2485 7.38189 9.67369
1 11.4485 9.35472 10.0238
1 11.2536 7.38029 11.7055
2 11.2634 9.39704 11.9659
1 13.2315 9.36069 12.2316
1 11.317 9.21167 13.9059
2 13.3047 9.44671 14.2334
1 13.1074 7.56452 14.6594
1 13.2563 9.38084 16.2068
2 13.3519 7.44754 16.5643
1 11.4634 7.31229 16.6539
1 13.3535 7.40992 18.5038
1 11.3032 9.47789 19.266
1 11.3055 7.5145 20.9612
2 11.3066 9.39421 21.1894
1 13.2477 9.37618 21.5651
1 11.3197 9.36913 23.1329
2 13.2016 9.32873 23.5028
1 13.2462 7.43105 23.8679
1 13.239 9.36055 25.4352
2 13.2476 7.41862 25.8114
1 11.3126 7.42068 26.1902
1 13.2553 7.43075 27.7483
2 11.3066 11.3159 0.434565
1 11.3111 13.2498 0.793561
1 11.3064 11.3116 2.36759
2 11.3042 13.2475 2.76058
1 13.2461 13.2456 3.09911
1 11.3205 13.2605 4.7908
2 13.2987 13.2441 5.00307
1 13.2376 11.3206 5.42868
1 13.1399 13.3099 7.0169
2 13.3067 11.2955 7.32713
1 11.312 11.4549 7.71194
1 13.2447 11.1601 9.2827
2 11.2544 11.3327 9.6769
1 11.3611 13.2855 9.91362
1 11.3 11.321 11.5847
2 11.3024 13.248 11.9381
1 13.2498 13.2489 12.3212
1 11.2959 13.2427 13.8877
2 13.2091 13.2478 14.2405
1 13.247 11.3209 14.6424
1 13.4229 13.2505 16.2191
2 13.2003 11.2605 16.5786
1 11.3113 11.3188 16.948
1 13.2466 11.3064 18.5196
2 11.3017 11.3576 18.8722
1 11.3087 13.2562 19.2483
1 11.2986 11.3038 20.8191
2 11.3506 13.207 21.1596
1 13.1886 13.2503 21.609
1 11.2681 13.4125 23.1753
2 13.1593 13.2124 23.5033
1 13.396 11.3203 23.8727
1 13.2564 13.1508 25.3909
2 13.1862 11.2561 25.8511
1 11.2673 11.3706 26.1667
1 13.2364 11.3035 27.7564
2 11.3018 15.1787 28.0502
1 11.3222 17.1232 0.794352
1 11.3276 15.1808 2.35154
2 11.3826 17.0688 2.73773
1 13.3776 17.1243 3.23254
1 11.2526 17.1205 4.66197
2 13.0358 17.1348 5.11872
1 13.3398 15.2313 5.32606
1 13.3516 17.0601 7.11664
2 13.0705 15.2147 7.09932
1 11.3963 15.0356 7.85126
2 11.0237 15.1811 9.73862
1 11.5312 17.0491 9.9986
1 11.3419 15.1785 11.5744
2 11.2849 17.1198 11.9937
1 13.2493 17.1399 12.2171
1 11.3236 17.1363 13.9134
2 13.2444 17.1408 14.2748
1 13.2434 15.1876 14.6357
1 13.2396 17.0797 16.2905
2 13.1544 15.1893 16.5512
1 11.3001 15.1879 16.9829
1 13.3136 15.3839 18.5767
2 11.3143 15.1389 18.9339
1 11.3979 17.1206 19.2526
1 11.307 15.1831 20.9135
2 11.2298 17.1533 21.1943
1 13.1132 17.1171 21.4927
1 11.2955 16.9723 23.1714
2 13.2762 17.2166 23.4467
1 13.2554 15.185 23.6367
1 13.2307 17.1029 25.3845
1 11.1556 15.1171 26.0912
1 13.2308 15.1907 27.89
2 11.3487 19.0493 28.0842
1 11.3051 20.9392 0.809114
1 11.1724 19.05 2.37671
2 11.3544 21.0868 2.72485
1 13.2473 21.0139 3.09887
1 11.3085 21.0054 4.65562
2 13.249 20.9886 5.03325
1 13.3119 19.0054 5.423
1 13.2545 20.9888 6.96824
2 13.2703 19.0909 7.33282
1 11.3085 19.0499 7.70508
1 13.182 18.9806 9.272
2 11.2464 19.1079 9.64684
1 11.2972 21.0022 10.0271
1 11.3048 19.0467 11.5773
2 11.3049 21.0006 11.9642
1 13.2507 20.9928 12.2594
1 11.3251 21.0083 13.9141
2 13.2452 21.0077 14.1002
1 13.2476 19.1913 14.7504
2 13.2273 18.8942 16.5968
1 11.3578 19.1234 16.9612
1 13.3155 18.8632 18.5499
2 11.2492 19.1136 18.892
1 11.3146 21.0034 19.253
1 11.3159 19.0653 20.8211
2 11.3246 21.013 21.192
1 13.2476 20.9887 21.5717
1 11.2942 20.9987 23.1412
2 13.2431 21.0015 23.5114
1 13.2403 19.0797 23.7148
1 13.2401 21.1139 25.4305
1 11.1492 19.1195 26.1818
1 13.2541 19.0567 27.9009
2 11.3073 22.7249 28.0695
1 11.3093 23.075 2.23627
2 11.3142 24.88 2.89602
1 13.232 24.8822 3.11003
1 11.2896 24.8924 4.74004
2 13.1942 24.8818 5.09003
1 13.2488 22.946 5.40523
1 13.2429 24.8854 7.0838
2 13.2497 22.9047 7.32462
1 11.3235 22.9429 7.72794
1 13.2496 23.0848 9.29731
2 11.2497 22.8877 9.65533
1 11.4618 24.8887 10.0282
1 11.3192 22.947 11.5911
2 11.278 24.8491 11.9713
1 13.3561 24.866 12.3854
1 11.2819 25.049 13.9122
2 13.1026 24.7439 14.3178
1 13.2876 22.8494 14.7346
1 13.2676 24.9218 16.3038
2 13.2454 23.1012 16.5928
1 11.3538 22.8947 16.9437
1 13.2442 23.0711 18.5065
2 11.2617 22.891 18.8911
1 11.5025 24.8901 19.2818
1 11.3742 22.9726 20.8301
2 11.1097 24.8287 21.1631
1 11.4294 24.8806 23.0313
2 13.2015 24.8258 23.6714
1 13.247 22.9434 23.8699
1 13.2391 24.8823 25.507
2 13.2434 22.9865 25.8258
1 11.265 22.9115 26.1776
1 13.1989 22.9972 27.7566
2 15.174 26.7769 0.437279
1 15.165 1.61325 0.660764
1 15.1938 26.8241 2.36308
2 15.184 1.60955 2.69345
1 17.1253 1.6093 3.0885
1 15.1815 1.61245 4.66
2 17.0875 1.60537 4.98599
1 17.1256 -0.239774 5.42889
1 17.2762 1.61406 6.96283
2 17.0702 26.7682 7.33752
1 15.1765 26.8125 7.72338
1 17.1362 -0.331 9.27854
2 15.2399 -0.269911 9.65745
1 15.176 1.60731 10.0369
1 15.1866 26.8056 11.6064
2 15.1797 1.60928 11.9797
1 17.1091 1.58963 12.3433
1 15.2743 1.63615 13.8999
2 17.1695 1.63378 14.2929
1 17.0906 -0.253035 14.5215
1 17.1253 1.72344 16.2046
1 15.0768 26.8209 16.9819
1 17.1102 26.8084 18.6866
2 15.2258 -0.26808 18.9038
1 15.1941 1.63388 19.2691
1 15.1195 26.7532 20.9481
2 15.1964 1.48206 21.146
1 17.0974 1.75915 21.5718
1 15.1888 1.60376 23.2876
2 17.2796 1.57271 23.5261
1 16.9618 26.8073 23.8607
1 16.9605 1.61439 25.4364
2 17.2082 26.7679 25.8276
1 15.1728 -0.200682 26.0697
1 17.1107 -0.32456 27.736
2 15.1668 3.59042 0.429834
1 15.1869 5.48892 0.796124
1 15.1847 3.54794 2.35607
2 15.1856 5.49431 2.74261
1 17.1273 5.49661 2.95263
1 15.1039 5.49255 4.66632
1 17.1203 3.46354 5.41496
1 17.1312 5.50657 7.27787
2 17.0706 3.60171 7.30294
1 15.1796 3.55773 7.71898
1 17.1252 3.69414 9.28568
2 15.1413 3.49304 9.65545
1 15.3305 5.48198 10.0175
1 15.1703 3.55139 11.596
2 15.1655 5.49397 11.9953
1 17.1153 5.49759 12.2455
1 15.2807 5.45361 13.9067
2 17.1797 5.48291 14.2614
1 17.1098 3.56062 14.6518
1 17.1249 5.49613 16.2084
2 17.128 3.60289 16.6212
1 15.1774 3.53421 16.9273
1 17.1229 3.54875 18.6351
2 15.1828 3.55912 18.8209
1 15.18 5.46231 19.2843
1 15.2078 3.54426 20.9842
2 15.1742 5.62209 21.1963
1 17.1182 5.33244 21.5562
1 15.1674 5.33378 23.1259
2 17.1689 5.57053 23.5107
1 16.9906 3.54429 23.7606
1 17.1133 5.4752 25.4279
2 17.2147 3.59478 25.8102
1 15.2267 3.42823 26.0464
1 17.1119 3.54405 27.7376
2 15.1834 7.43077 28.1199
1 15.2046 9.37517 0.80268
1 15.2068 7.43762 2.37121
2 15.1993 9.36558 2.73292
1 17.3117 9.41312 3.27864
1 15.1045 9.43859 4.65716
2 16.8296 9.24847 5.04052
1 17.3249 7.56897 5.43698
1 17.1801 9.54066 6.81788
2 17.0808 7.45486 7.3153
1 15.1972 7.44032 7.72991
1 17.1383 7.28606 9.29108
2 15.1831 7.42687 9.65845
1 15.0354 9.37607 10.0128
1 15.1842 7.42726 11.5805
2 15.17 9.3658 11.9717
1 17.0253 9.36558 12.3452
1 15.1862 9.37289 13.8927
2 17.0967 9.36242 14.2719
1 17.1359 7.42468 14.6296
1 17.1438 9.35709 16.2151
2 17.1193 7.42443 16.5736
1 15.2033 7.42732 16.9663
1 17.1369 7.42423 18.5163
2 15.2465 7.42499 18.8994
1 15.1921 9.38774 19.2746
1 15.1719 7.44093 20.8244
2 15.1372 9.29267 21.187
1 17.1424 9.45244 21.5635
1 15.1858 9.5346 23.138
2 17.124 9.27744 23.4929
1 17.1261 7.43559 23.9008
1 17.3317 9.46549 25.4546
2 17.0726 7.37599 25.826
1 15.1798 7.42723 26.1763
1 17.1251 7.43467 27.7477
2 15.1559 11.3076 28.0979
1 15.1978 13.2453 0.789538
1 15.2077 11.298 2.35986
2 15.1874 13.247 2.72732
1 17.1279 13.2243 3.10131
1 15.227 13.1918 4.6809
2 17.1013 13.4847 4.98143
1 17.1003 13.1728 6.87119
2 17.1235 11.3232 7.5187
1 15.2068 11.3005 7.71464
1 17.1355 11.3183 9.35903
2 15.2267 11.3718 9.66143
1 15.1159 13.2824 9.99078
1 15.1836 11.3136 11.5868
2 15.1839 13.2388 11.9993
1 17.1183 13.2647 12.3312
1 15.181 13.2563 14.0048
2 17.1154 13.2347 14.285
1 17.1473 11.2836 14.6371
1 16.9949 13.1 16.1911
2 17.1704 11.2279 16.6136
1 15.1947 11.4794 16.9481
1 17.1656 11.3677 18.6431
2 15.1562 11.2626 18.8953
1 15.2334 13.1784 19.1791
1 15.3806 11.3812 20.9776
2 14.9069 13.2719 21.0467
1 15.3234 13.2548 23.0564
2 17.2297 13.2909 23.7109
1 16.9903 11.3356 23.7442
1 17.1557 13.1959 25.5234
2 16.9291 11.3393 25.7817
1 15.1194 11.3181 26.0716
1 17.0879 11.2952 27.6393
2 15.132 15.1761 28.0498
1 15.1733 17.1203 0.723923
1 15.1832 15.1942 2.36035
2 15.1952 17.1225 2.57112
1 16.9997 17.1119 3.23013
2 17.3366 17.1355 5.11405
1 17.0463 15.2863 5.44409
1 17.0663 17.1004 7.08948
2 17.4133 15.1292 7.2777
1 17.0347 15.2936 9.13716
2 15.3928 15.0843 9.85921
1 15.1812 17.077 9.91437
1 15.1523 15.212 11.6328
2 15.1824 17.1338 12.0479
1 17.1252 17.1099 12.2042
1 15.1724 17.1363 13.9301
2 17.0695 17.0685 14.2705
1 17.1178 15.1793 14.4906
1 17.1803 17.2817 16.2081
1 15.0447 15.0734 17.0171
1 17.1343 15.1617 18.7073
2 15.2491 15.01 18.9066
1 15.2337 15.0708 20.7911
1 17.2316 17.1045 21.5555
1 15.1763 16.991 23.348
2 17.0948 17.1898 23.4627
1 16.9357 15.1747 23.8424
1 17.2743 17.1196 25.4504
2 17.1716 15.1225 25.8418
1 15.3226 15.1816 26.1134
1 17.0333 15.192 27.7491
2 15.188 19.0688 28.1081
1 15.1738 21.0006 0.794558
1 15.1803 19.0496 2.36788
2 15.1901 21.0002 2.73339
1 17.1292 21.0048 3.10274
1 15.1876 21.0042 4.67284
2 17.1292 20.9471 5.0217
1 17.0732 19.0073 5.32991
1 17.124 20.9901 6.97126
2 17.1218 19.0897 7.15419
1 15.3411 19.0415 7.8709
2 14.9581 19.1919 9.6879
1 15.2541 20.9936 10.0239
1 15.2198 19.0261 11.5294
2 15.1908 20.9985 11.9648
1 17.1221 20.989 12.3373
1 15.1677 21.0042 13.9139
2 17.072 21.0057 14.2601
1 17.3158 19.0519 14.6712
1 17.1765 20.9683 16.2097
2 16.8754 19.1261 16.5496
1 15.0893 19.0845 16.9747
1 17.2007 19.023 18.4114
2 15.2719 19.2902 18.8385
1 15.1951 21.0566 19.2727
1 15.1804 19.0913 20.7017
2 15.1682 21.047 21.2073
1 17.0972 20.998 21.5539
1 15.1814 20.9907 23.134
2 17.1187 21.0083 23.5011
1 17.1321 19.0738 23.8756
1 17.1174 21.0129 25.441
2 17.1321 19.1203 25.7992
1 15.2791 19.0583 26.1891