1711
Atoms. Timestep: 643
2 0.0263893 -0.129951 0.216166
1 -0.18735 1.73698 0.551777
1 -0.224149 -0.194442 2.14673
2 -0.130907 1.77279 2.51779
1 1.77979 1.77077 2.91141
1 -0.115943 1.77833 4.48252
2 1.77649 1.78081 4.87439
1 1.70915 -0.305785 5.36982
1 1.78653 1.75801 6.78541
2 1.77894 0.0248818 7.26671
1 -0.0921089 -0.197511 7.5825
1 1.78204 -0.149781 9.16447
2 -0.11627 -0.136896 9.56978
1 -0.121872 1.77226 9.95333
1 -0.129912 -0.133073 11.5339
2 -0.130417 1.77651 11.9232
1 1.78286 1.78552 12.3152
1 -0.140168 1.77724 13.883
2 1.73156 1.73111 14.2716
1 1.77743 -0.141139 14.6608
1 1.78521 1.7832 16.2272
2 1.78328 -0.131544 16.6235
1 -0.126485 -0.127245 17.0103
1 1.78679 -0.132069 18.5905
2 -0.126895 -0.128295 18.9722
1 -0.135011 1.78177 19.3601
1 -0.135455 -0.125158 20.9362
2 -0.14349 1.78146 21.3322
1 1.72837 1.77711 21.7399
1 -0.0431419 1.77902 23.2887
2 1.86525 1.78309 23.6786
1 1.79124 -0.123401 24.0762
1 1.78628 1.76481 25.6327
2 1.78068 -0.14043 26.0355
1 -0.2449 -0.129562 26.5228
1 1.7802 -0.134492 27.964
2 -0.129571 3.68596 0.169992
1 -0.133372 5.60209 0.5587
1 -0.125277 3.68791 2.13154
2 -0.133288 5.60246 2.53745
1 1.77643 5.60037 2.83759
1 -0.112032 5.60867 4.60304
2 1.8094 5.61118 4.66825
1 1.77044 3.83915 5.39618
2 1.82364 3.47666 7.27442
1 -0.0650249 3.87306 7.57832
1 1.7819 3.72574 9.15927
2 -0.130458 3.64933 9.59451
1 -0.133736 5.55643 9.88277
1 -0.128118 3.68155 11.5373
2 -0.0693927 5.55858 11.8903
1 1.78548 5.60402 12.3128
1 -0.142809 5.62276 13.8724
2 1.73129 5.65188 14.2716
1 1.90899 3.69272 14.6483
1 1.78548 5.59832 16.2258
2 1.7467 3.69123 16.6471
1 -0.140243 3.69806 17.012
1 1.78676 3.68873 18.5901
2 -0.130158 3.69339 18.9769
1 -0.1372 5.60841 19.3589
1 -0.136828 3.69079 20.9385
2 -0.126914 5.60255 21.3239
1 1.78967 5.60096 21.7131
1 -0.130823 5.59534 23.2862
2 1.7889 5.59845 23.6722
1 1.78548 3.68219 24.0607
1 1.7792 5.60462 25.6346
2 1.76326 3.68974 26.0246
1 -0.131952 3.68598 26.4082
1 1.7796 3.68075 27.9949
2 -0.130434 7.51343 0.169242
1 -0.129229 9.4299 0.562286
1 -0.12144 7.51826 2.13748
2 -0.10667 9.42565 2.52493
1 1.90066 9.41196 3.03988
1 -0.181149 9.42139 4.47306
2 1.58975 9.39322 4.91937
1 1.81094 7.41658 5.37884
1 1.79881 9.4907 6.80135
2 1.82908 7.7483 7.26912
1 -0.0685708 7.3498 7.58587
1 1.75251 7.54183 9.16789
2 -0.0972483 7.36207 9.54308
1 -0.272032 7.64241 11.4314
2 -0.0900983 9.51339 12.0797
1 1.77485 9.43323 12.2919
1 -0.138575 9.42133 13.9252
2 1.78831 9.40316 14.2743
1 1.77758 7.52079 14.6594
1 1.78449 9.42197 16.2456
2 1.79819 7.51239 16.6245
1 -0.0779925 7.51102 17.0197
1 1.78362 7.51268 18.5921
2 -0.152544 7.51344 18.9653
1 -0.138018 9.41809 19.359
1 -0.139407 7.51329 20.9279
2 -0.127457 9.42369 21.3239
1 1.78747 9.4209 21.7149
1 -0.129814 9.42707 23.2882
2 1.79127 9.42624 23.6718
1 1.7923 7.51294 24.0573
1 1.78098 9.42201 25.6336
2 1.78346 7.51401 26.0246
1 -0.131936 7.51869 26.411
1 1.78228 7.51404 27.9872
2 -0.152421 11.3339 0.163561
1 -0.142436 13.2413 0.553915
1 -0.130163 11.3312 2.12772
2 -0.131858 13.246 2.54511
1 1.76551 13.2442 2.90457
1 -0.127153 13.2421 4.60571
2 1.81996 13.2499 4.84442
1 1.83143 11.3081 5.24167
1 1.6556 13.2526 6.84064
2 1.84029 11.3208 7.2227
1 -0.094141 11.4964 7.63376
1 1.7072 11.3416 9.20998
2 -0.166401 11.2794 9.50616
1 -0.137397 11.3369 11.3497
2 -0.172329 13.1606 12.0817
1 1.77185 13.4156 12.3142
1 -0.0839876 13.3106 13.9316
2 1.78914 13.0261 14.2431
1 1.77762 11.2648 14.6694
1 1.78418 13.3593 16.1184
2 1.78055 11.3549 16.618
1 -0.125928 11.3377 17.0067
1 1.78105 11.3435 18.5784
2 -0.128905 11.3326 18.973
1 -0.126176 13.2481 19.3547
1 -0.132121 11.3363 20.9375
2 -0.128875 13.2396 21.32
1 1.7815 13.2499 21.7194
1 -0.163184 13.2961 23.3031
2 1.78406 13.2464 23.6734
1 1.77904 11.338 24.0609
1 1.77754 13.2512 25.6373
2 1.79696 11.3343 26.0255
1 -0.0800499 11.342 26.4249
1 1.78637 11.3364 27.995
2 -0.124254 15.1556 0.17016
1 -0.122557 17.0679 0.559021
1 -0.122326 15.1604 2.13542
2 -0.111799 17.0694 2.52218
1 1.88109 17.0678 3.0271
1 -0.176907 17.0655 4.47267
2 1.59281 17.0648 4.91845
1 1.82928 15.1878 5.25773
1 1.80087 17.0702 6.82428
2 1.82836 15.2008 7.23991
1 -0.125834 14.9821 7.62928
1 1.78866 15.1436 9.31374
2 -0.092068 15.3356 9.51693
1 -0.268311 17.1197 9.97369
1 -0.00595533 15.034 11.4223
2 -0.146278 17.1271 11.9472
1 1.82365 16.9448 12.2785
1 -0.0815159 16.989 13.8741
2 1.77141 17.2889 14.2529
1 1.77246 16.9579 16.1258
2 1.78154 15.1543 16.7878
1 -0.119694 15.1654 17.0116
1 1.77177 15.1694 18.6443
2 -0.137848 15.1764 18.986
1 -0.1823 17.2049 19.5175
1 -0.191421 15.1288 20.9416
2 0.0254052 16.8769 21.3424
1 1.78822 17.1326 21.7196
1 -0.146761 17.0489 23.1882
2 1.80196 17.0682 23.6836
1 1.77078 15.161 24.0538
1 1.77466 17.0687 25.6325
2 1.77054 15.1595 26.02
1 -0.185965 15.2119 26.3703
1 1.76522 15.154 27.9758
2 -0.127907 18.9826 0.166424
1 -0.141759 20.9137 0.547288
1 -0.120698 18.978 2.12651
2 -0.131394 20.8903 2.52081
1 1.78277 20.9083 2.91371
1 -0.106338 20.8992 4.48982
2 1.79542 20.8976 4.87247
1 1.84405 18.9403 5.23767
1 1.84362 20.8557 6.829
2 1.78064 18.9704 7.21566
1 -0.112843 18.9812 7.6222
1 1.84892 18.9085 9.22911
2 -0.0648828 19.0343 9.57355
1 -0.1317 20.9064 9.96655
1 -0.188849 19.0255 11.5537
2 0.0744971 20.8926 11.879
1 1.86527 20.8225 12.3014
1 -0.237409 20.8928 13.7662
2 1.75656 20.9087 14.2667
1 1.77763 19.0525 14.6664
1 1.77775 20.8989 16.2401
2 1.77653 18.9627 16.6127
1 -0.165526 19.0349 16.9514
1 1.78763 18.9684 18.5836
2 -0.0724056 18.9807 18.8136
1 -0.139342 20.7687 19.4799
2 -0.129656 21.0827 21.3697
1 1.7472 20.8355 21.6938
1 -0.138517 20.8651 23.2753
2 1.78194 20.8851 23.6723
1 1.76876 18.9764 24.0601
1 1.71531 20.9239 25.6507
2 1.77084 18.9849 26.0236
1 -0.166284 18.9347 26.3944
1 1.77827 18.978 27.9867
2 -0.163567 22.8037 0.332781
1 -0.2274 24.728 0.481888
1 -0.209952 22.8643 2.20825
2 0.0666006 24.7133 2.27921
1 1.73873 24.7166 2.94394
2 1.92909 24.7137 4.74865
1 1.75464 22.9786 5.41061
2 1.58472 22.5993 7.22048
1 -0.158034 22.8646 7.60436
1 1.92056 22.8239 9.02875
2 -0.111978 22.8073 9.56255
1 -0.113794 24.6975 9.95956
1 -0.175397 22.7616 11.5443
2 -0.132379 24.7022 11.9192
1 1.77532 24.7058 12.3062
1 -0.135117 24.7035 13.8848
2 1.77909 24.7063 14.271
1 1.78545 22.7941 14.6625
1 1.78429 24.7002 16.2388
2 1.79385 22.7993 16.628
1 -0.171379 22.7301 16.9931
1 1.71708 22.7941 18.5692
2 -0.145417 22.7777 18.9772
1 -0.13361 24.7129 19.3489
1 -0.128866 22.8542 20.9217
2 -0.110777 24.728 21.323
1 1.79133 24.7135 21.7065
1 -0.123457 24.7104 23.3028
2 1.78308 24.7148 23.6714
1 1.75325 22.7983 24.0788
1 1.72338 24.6861 25.652
2 1.97311 22.8026 25.9821
1 1.65145 22.8141 27.8763
2 3.53394 -0.130271 0.210736
1 3.75725 1.74985 0.540617
1 3.72019 -0.137213 2.11886
2 3.69979 1.78332 2.52089
1 5.62926 1.83573 2.89049
1 3.68224 1.77038 4.48542
2 5.60098 1.77489 4.87044
1 5.67355 -0.161846 5.24638
1 5.58806 1.77633 6.8298
2 5.59206 -0.138606 7.2223
1 3.65556 -0.206256 7.58652
1 5.59971 -0.122786 9.17877
2 3.69402 -0.133938 9.56701
1 3.68293 1.78491 9.94744
1 3.69246 -0.138062 11.5239
2 3.68865 1.74672 11.895
1 5.59098 1.78218 12.3162
1 3.69092 1.90998 13.8947
2 5.65351 1.73338 14.2723
1 5.60775 -0.140447 14.6617
1 5.59976 1.78371 16.2265
2 5.5977 -0.128962 16.6217
1 3.6907 -0.129374 17.0101
1 5.60216 -0.138315 18.587
2 3.69456 -0.140135 18.9721
1 3.71288 1.7818 19.3775
1 3.75059 -0.0989201 20.9492
2 3.49434 1.77993 21.2782
1 3.86681 1.8511 23.1734
2 5.60247 1.60337 23.7948
1 5.60308 -0.186956 24.0059
1 5.67783 1.93388 25.5933
2 5.60766 -0.10299 25.8543
1 3.82459 -0.117631 26.518
2 3.70493 3.68244 0.166853
1 3.70275 5.59779 0.54965
1 3.69162 3.68411 2.12111
2 3.68757 5.59863 2.51034
1 5.55167 5.53784 2.91328
1 3.69102 5.60942 4.48994
2 5.62092 5.60714 4.86395
1 5.61477 3.69636 5.25039
1 5.61627 5.6056 6.8155
2 5.59207 3.69389 7.21363
1 3.66663 3.74872 7.59956
1 5.58936 3.68867 9.17549
2 3.69245 3.69496 9.59964
1 3.68375 5.60328 9.95105
1 3.68982 3.69211 11.6241
2 3.68965 5.63677 11.8943
1 5.59386 5.59751 12.3191
1 3.69216 5.47383 13.8951
2 5.65956 5.65139 14.2733
1 5.47708 3.69412 14.6491
1 5.59837 5.59959 16.2304
2 5.6386 3.68975 16.6487
1 3.69296 3.69188 16.9185
1 5.60786 3.69552 18.5907
2 3.69547 3.69256 18.9479
1 3.68718 5.59591 19.3627
1 3.76248 3.65626 20.9521
2 3.70009 5.59372 21.3196
1 5.6385 5.63936 21.7178
1 3.73096 5.53932 23.2965
2 5.59807 5.76554 23.6337
1 5.6763 5.42387 25.5259
2 5.41284 3.6967 26.1494
1 3.6326 3.69142 26.4103
1 5.6901 3.69537 27.9447
2 3.69186 7.50536 0.164738
1 3.69265 9.4226 0.498617
1 3.69715 7.51956 2.14397
2 3.69224 9.42179 2.35178
1 5.48596 9.41716 3.02535
2 5.78698 9.42023 4.91267
1 5.56095 7.5377 5.23443
1 5.57009 9.40898 6.81354
2 5.59148 7.50543 7.22262
1 3.66301 7.45703 7.59621
1 5.59848 7.51467 9.18197
2 3.68804 7.51671 9.56742
1 3.67752 9.42588 9.94826
1 3.69457 7.5208 11.5274
2 3.69362 9.42117 11.9198
1 5.60663 9.42754 12.3152
1 3.69382 9.42357 13.8804
2 5.61232 9.42536 14.2742
1 5.60769 7.52267 14.6595
1 5.60205 9.4259 16.2406
2 5.59609 7.51241 16.6207
1 3.69618 7.51372 17.0155
1 5.62229 7.52143 18.5978
2 3.69505 7.51198 18.975
1 3.68938 9.42374 19.3605
1 3.70781 7.51418 20.9435
2 3.70241 9.4252 21.3206
1 5.6639 9.44754 21.7059
1 3.73376 9.48346 23.2887
2 5.59992 9.26779 23.6309
1 5.60628 7.51442 24.0907
1 5.60454 9.54724 25.5212
2 5.60693 7.51228 26.0152
1 3.70833 7.50504 26.4049
1 5.61449 7.4992 27.9833
2 3.68892 11.3412 0.167295
1 3.69466 13.2473 0.56528
1 3.68646 11.317 2.14282
2 3.64346 13.1967 2.51147
1 5.61132 13.381 2.89067
1 3.69161 13.2463 4.46359
2 5.56243 13.1954 4.87063
1 5.54922 11.2947 5.25422
1 5.74171 13.2532 6.84281
2 5.54731 11.286 7.2266
1 3.68798 11.3302 7.61833
1 5.60345 11.3394 9.18341
2 3.67574 11.3231 9.57279
1 3.67489 13.1874 9.97714
1 3.69186 11.3236 11.5443
2 3.74148 13.1999 11.9175
1 5.60527 13.2501 12.3089
1 3.64534 13.328 13.8774
2 5.59269 13.2482 14.2729
1 5.59739 11.3366 14.6533
1 5.6018 13.2445 16.2351
2 5.5946 11.3368 16.619
1 3.68852 11.3438 17.0116
1 5.62055 11.3263 18.5988
2 3.69543 11.3337 18.9749
1 3.69008 13.246 19.3582
1 3.70214 11.3324 20.9388
2 3.69804 13.242 21.3209
1 5.6417 13.1603 21.7202
1 3.73097 13.1926 23.2933
2 5.60094 13.4339 23.629
1 5.60959 13.1367 25.5213
2 5.60381 11.3369 26.191
1 3.70291 11.3387 26.4009
1 5.60768 11.3398 28.0444
2 3.64403 15.1504 0.137068
1 3.69592 17.0662 0.506842
1 3.82258 15.1694 2.15366
2 3.62917 17.105 2.3479
1 5.46999 16.9441 3.03781
2 5.8 16.9149 4.90139
1 5.54709 15.1331 5.17037
1 5.55964 17.1996 6.69647
2 5.55941 15.2362 7.18346
1 3.69295 15.2012 7.62029
1 5.56984 15.2151 9.17538
2 3.72069 14.951 9.49474
1 3.56589 15.2292 11.4141
2 3.74661 16.9167 12.1307
1 5.55554 17.1446 12.2769
1 3.6432 17.0166 13.9418
2 5.59667 17.0652 14.2774
1 5.5963 15.1591 14.6531
1 5.60381 17.0685 16.2343
2 5.59153 15.1575 16.6201
1 3.68166 15.1562 17.0021
1 5.60454 15.1482 18.5882
2 3.69803 15.157 18.977
1 3.69325 17.0682 19.3573
1 3.69772 15.1535 20.9441
2 3.68766 17.0715 21.3213
1 5.59873 17.0674 21.7131
1 3.69556 17.0647 23.2854
2 5.60349 17.082 23.6768
1 5.61525 15.2077 24.0831
1 5.61065 17.062 25.6486
2 5.62428 15.1366 26.0495
1 3.69918 15.1455 26.4002
1 5.55418 15.1491 28.0679
2 3.69426 18.9872 0.165077
1 3.68322 20.8964 0.55755
1 3.69538 18.9781 2.14967
2 3.69144 20.8928 2.51858
1 5.59991 20.8686 2.92768
1 3.72458 20.8444 4.50278
2 5.60369 21.0938 4.82652
1 5.55396 20.8176 6.73966
2 5.61368 18.9923 7.39965
1 3.70593 18.9546 7.53894
1 5.53244 18.907 9.27245
2 3.68634 19.1917 9.34078
1 3.68837 20.8519 10.0736
2 3.7094 21.0774 11.9766
1 5.56891 20.8265 12.2924
1 3.69626 20.8658 13.876
2 5.60503 20.882 14.2709
1 5.59246 18.9754 14.6526
1 5.60203 20.8961 16.2454
2 5.59642 18.9774 16.6182
1 3.68226 18.9691 17.0097
1 5.60768 18.9894 18.5848
2 3.6978 18.9889 18.9731
1 3.7484 20.9255 19.3471
1 3.69335 18.9873 20.9301
2 3.69299 20.8882 21.3256
1 5.63903 20.9537 21.6926
1 3.68957 20.8916 23.2799
2 5.60084 20.8908 23.672
1 5.60483 18.9812 24.0587
1 5.6028 20.8872 25.6347
2 5.60187 18.976 26.0256
1 3.68742 18.9854 26.4079
1 5.60462 18.9737 27.9909
2 3.67207 22.8083 0.162579
1 3.74271 24.7391 0.555138
1 3.68327 22.8128 2.12779
2 3.7122 24.709 2.53261
1 5.72059 24.7107 3.01964
1 3.6963 24.7064 4.47867
2 5.448 24.7314 4.91164
1 5.64622 22.8806 5.27086
1 5.55402 24.6732 6.83648
2 5.79577 22.7692 7.17043
1 5.47534 22.7769 9.04964
2 3.69611 22.7819 9.74765
1 3.68944 24.6997 9.93059
1 3.69121 22.8641 11.5866
2 3.69078 24.7332 11.923
1 5.60568 24.7148 12.3048
1 3.69148 24.7114 13.8883
2 5.60335 24.7135 14.268
1 5.59684 22.7972 14.5996
1 5.60239 24.7018 16.2484
2 5.59356 22.7994 16.4497
1 3.80616 22.7996 17.1298
2 3.49726 22.8003 19.0153
1 3.74392 24.6784 19.3511
1 3.71244 22.7979 20.9154
2 3.7013 24.7189 21.3251
1 5.62239 24.6439 21.6928
1 3.6908 24.7089 23.2886
2 5.60142 24.6881 23.6697
1 5.60644 22.801 24.0616
1 5.60379 24.7247 25.6489
2 5.61871 22.8019 26.0244
1 3.74501 22.7993 26.4256
1 5.60471 22.8026 27.9959
2 7.70305 -0.0955235 0.213497
1 7.48395 1.86622 0.66761
1 7.48689 -0.208845 2.10116
2 7.47126 1.5353 2.57271
1 9.35327 1.92521 2.86995
1 7.51346 1.80983 4.45451
2 9.4205 1.74495 4.89522
1 9.36116 -0.16749 5.24029
1 9.43648 1.79202 6.83184
2 9.41578 -0.128102 7.22022
1 7.51116 -0.13767 7.60352
1 9.43551 -0.12518 9.19452
2 7.51626 -0.132498 9.56603
1 7.51424 1.78178 9.96517
1 7.51323 -0.138257 11.5309
2 7.46588 1.73326 11.9178
1 9.45994 1.88302 12.275
1 7.52903 1.78409 13.8689
2 9.4269 1.73473 14.3011
1 9.42705 -0.139123 14.6646
1 9.42395 1.78115 16.2444
2 9.42548 -0.132428 16.6493
1 7.51634 -0.135314 17.0133
1 9.41161 -0.142469 18.6872
2 7.47841 -0.157138 18.9478
1 7.49593 1.77588 19.3747
1 7.61404 -0.0675062 20.9532
2 7.65528 1.83086 21.2873
1 9.46163 1.6424 21.7158
1 7.34433 1.8526 23.1759
2 9.40199 1.81579 23.6939
1 9.40006 -0.118496 23.9726
1 9.34437 1.81351 25.6534
2 9.39674 -0.120622 26.0052
1 7.38592 -0.100501 26.5367
1 9.47178 -0.122212 27.9724
2 7.48604 3.67441 0.115373
1 7.58376 5.44861 0.737382
2 7.2622 5.85211 2.51121
1 7.65743 5.53812 4.28542
2 9.36274 5.58663 5.0778
1 9.43109 3.69709 5.14181
1 9.44034 5.5934 6.90103
2 9.44716 3.68517 7.2344
1 7.51782 3.69393 7.59362
1 9.37977 3.68162 9.26402
2 7.46831 3.69191 9.5432
1 7.51534 5.60109 9.9677
1 7.64936 3.69068 11.5483
2 7.46381 5.64617 11.9191
1 9.43531 5.47596 12.3189
1 7.54828 5.6611 13.8868
2 9.38459 5.45575 14.2749
1 9.43812 3.64156 14.5707
1 9.42883 5.71706 16.134
2 9.42711 3.71108 16.5905
1 7.52921 3.70911 17.0164
1 9.41558 3.7049 18.5798
2 7.51572 3.7157 18.9804
1 7.52292 5.72882 19.4784
1 7.44047 3.62641 20.9378
2 7.51823 5.40414 21.363
1 9.3861 5.67019 21.7007
1 7.4797 5.55954 23.283
2 9.4175 5.60023 23.677
1 9.38202 3.69375 24.0883
1 9.36753 5.56567 25.6613
2 9.60633 3.69148 26.0075
1 9.32276 3.68594 27.9825
2 7.52865 7.49567 0.171036
1 7.50419 9.42494 0.553985
1 7.56566 7.56737 2.12094
2 7.49475 9.43175 2.52115
1 9.44378 9.42877 2.89737
1 7.55944 9.43068 4.46773
2 9.39006 9.47382 4.86913
1 9.54677 7.50514 5.23947
1 9.48673 9.43866 6.83449
2 9.39388 7.52625 7.25391
1 7.50624 7.51836 7.60157
1 9.43226 7.51412 9.19228
2 7.51362 7.51178 9.57151
1 7.52297 9.42261 9.95759
1 7.51217 7.51803 11.5372
2 7.49796 9.42399 11.9244
1 9.37736 9.40508 12.3447
1 7.55194 9.36886 13.9064
2 9.45762 9.61116 14.2255
1 9.44036 9.30903 16.1146
2 9.42759 7.51202 16.7923
1 7.52496 7.51572 16.9587
1 9.44498 7.58332 18.6569
2 7.51838 7.54422 18.8159
1 7.51755 9.42505 19.5421
2 7.51959 9.42454 21.393
1 9.37511 9.41726 21.6866
1 7.48366 9.48754 23.2661
2 9.42318 9.42929 23.6842
1 9.4163 7.51412 24.0508
1 9.42396 9.42113 25.6415
2 9.41979 7.50468 26.0207
1 7.50672 7.49656 26.424
1 9.45792 7.55776 28.0071
2 7.53021 11.3414 0.169559
1 7.57363 13.2814 0.550239
1 7.50804 11.3234 2.13062
2 7.54098 13.1904 2.54453
1 9.38114 13.2397 2.91119
1 7.50766 13.2467 4.58066
2 9.48531 13.253 4.83014
1 9.44849 11.3546 5.27753
1 9.33346 13.2136 6.84966
2 9.28871 11.2711 7.1836
1 7.47276 11.4633 7.59872
1 9.5404 11.3343 9.06436
2 7.53406 11.3007 9.58828
1 7.51285 13.2348 9.86173
1 7.52533 11.3379 11.5304
2 7.51628 13.2466 11.8944
1 9.44158 13.2359 12.3124
1 7.50755 13.25 13.8738
2 9.40338 13.2627 14.2477
1 9.45177 11.3863 14.6704
1 9.4928 13.2436 16.2515
2 9.38617 11.2602 16.6044
1 7.51338 11.3171 16.968
1 9.45441 11.2633 18.5822
2 7.52509 11.3084 18.8197
1 7.52232 13.1189 19.4807
2 7.51782 13.4342 21.3701
1 9.39957 13.1799 21.702
1 7.47863 13.1607 23.2779
2 9.43112 13.2375 23.6709
1 9.42479 11.3375 24.0562
1 9.42784 13.2533 25.6522
2 9.42363 11.3346 26.02
1 7.5088 11.3369 26.4068
1 9.46299 11.2845 27.9979
2 7.37011 15.156 0.176989
1 7.55676 17.0295 0.559375
1 7.38227 15.1721 2.13358
2 7.56804 17.1197 2.52328
1 9.44564 17.0594 2.90519
1 7.54326 17.1226 4.47022
2 9.43825 17.0696 4.89029
1 9.42584 15.152 5.26377
1 9.43178 17.0787 6.92638
2 9.47988 15.1684 7.19423
1 7.50637 15.0342 7.59393
1 9.42115 15.2835 9.18556
2 7.45086 15.1433 9.59762
1 7.64034 17.0723 9.94909
1 7.51517 15.1582 11.5306
2 7.46844 17.0724 11.9451
1 9.43436 17.0751 12.2198
1 7.50465 17.0619 13.8775
2 9.4031 17.0659 14.2176
1 9.43634 15.161 14.6706
1 9.56323 17.0613 16.2487
2 9.3018 15.1561 16.6033
1 7.48234 15.1498 17.0216
1 9.44814 15.1499 18.5424
2 7.51985 15.1334 18.9777
1 7.51546 17.0659 19.3444
1 7.51228 15.2059 20.9214
2 7.51467 17.068 21.3224
1 9.43444 17.0729 21.7124
1 7.51755 17.0678 23.2873
2 9.435 17.0705 23.6708
1 9.42408 15.1478 24.0024
1 9.42393 17.0571 25.648
2 9.42761 15.1572 25.8558
1 7.62105 15.1491 26.5181
2 7.51344 18.9705 0.167538
1 7.51429 20.891 0.557214
1 7.49991 18.9764 2.12948
2 7.49962 20.8901 2.51756
1 9.37135 20.8937 2.93079
1 7.47254 20.8359 4.50553
2 9.43665 20.8948 4.86076
1 9.43091 18.983 5.25533
1 9.43999 20.8995 6.81292
2 9.43171 19.018 7.19676
1 7.49887 18.9814 7.6097
1 9.43238 18.8479 9.18445
2 7.45654 19.0262 9.57196
1 7.49726 20.9021 9.94955
1 7.5193 18.977 11.5246
2 7.49092 20.888 11.9228
1 9.36796 20.8883 12.3221
1 7.50766 20.8892 13.8898
2 9.447 20.888 14.265
1 9.4414 18.9756 14.6593
1 9.42083 20.9012 16.2291
2 9.37686 19.0247 16.6195
1 7.5042 18.9881 17.0171
1 9.41818 18.9888 18.58
2 7.5098 19.002 18.9776
1 7.44739 21.0596 19.478
1 7.51701 18.9291 20.915
2 7.5138 20.6987 21.3672
1 9.38701 20.9456 21.694
1 7.51301 20.9097 23.2664
2 9.42544 20.8875 23.6753
1 9.42664 18.9748 24.0585
1 9.42505 20.8874 25.6373
2 9.42512 18.9764 26.0245
1 7.513 18.9787 26.4126
1 9.42556 18.9767 27.9912
2 7.51045 22.8025 0.164007
1 7.45406 24.7462 0.484742
1 7.5122 22.807 2.13852
2 7.51648 24.6844 2.34928
1 9.31124 24.7073 3.02354
2 9.61735 24.7084 4.91454
1 9.37193 22.8266 5.23605
1 9.40837 24.708 6.81654
2 9.44228 22.7962 7.22244
1 7.56554 22.7957 7.61669
1 9.43925 22.8099 9.19184
2 7.49335 22.8051 9.56191
1 7.50379 24.7036 9.95503
1 7.50461 22.8016 11.5271
2 7.52402 24.7097 11.9221
1 9.46027 24.7615 12.2954
1 7.51764 24.7071 13.8808
2 9.4224 24.7095 14.2746
1 9.43055 22.7968 14.657
1 9.4139 24.7065 16.2413
2 9.39176 22.8026 16.6242
1 7.40031 22.8003 17.0631
1 9.4777 22.7993 18.5907
2 7.69513 22.802 18.8581
1 7.45322 24.5475 19.4823
2 7.45233 24.8583 21.3621
1 9.38767 24.8109 21.6795
1 7.51889 24.6918 23.2617
2 9.4274 24.679 23.7027
1 9.42173 22.7938 24.0614
1 9.41633 24.7228 25.6385
2 9.42222 22.7996 26.0269
1 7.51487 22.7969 26.4106
1 9.42139 22.8025 27.9957
2 11.3352 -0.12207 0.166289
1 11.3272 1.80721 0.59267
1 11.3214 -0.159785 2.13218
2 11.3168 1.67057 2.53265
1 13.2458 1.91538 2.88617
1 11.3243 1.78449 4.46106
2 13.2513 1.74125 4.8891
1 13.2502 -0.12902 5.25521
1 13.2441 1.79358 6.84574
2 13.2542 -0.113824 7.22102
1 11.3303 -0.132901 7.55172
1 13.2376 -0.12927 9.19475
2 11.3349 -0.119688 9.40639
1 11.3744 1.70974 10.0596
2 11.3939 1.91536 11.9585
1 13.23 1.71822 12.2888
1 11.3365 1.76685 13.8567
2 13.2482 1.73242 14.2597
1 13.2475 -0.149228 14.6569
1 13.2447 1.78365 16.2244
2 13.2487 -0.132886 16.6155
1 11.3338 -0.135093 17.0076
1 13.2531 -0.128771 18.5796
2 11.3674 -0.130954 18.9482
1 11.3288 1.77636 19.3685
1 11.2002 -0.137818 20.9463
2 11.3909 1.82686 21.3214
1 13.2593 1.78349 21.7117
1 11.3234 1.78105 23.2847
2 13.2095 1.77799 23.6507
1 13.2666 -0.131609 24.076
1 13.3785 1.76733 25.6498
2 13.1982 -0.180834 26.0264
1 11.3173 -0.126383 26.3949
1 13.1996 -0.128454 27.9651
2 11.3113 3.67288 0.0942055
1 11.2938 5.53386 0.599769
1 11.33 3.73955 2.19301
2 11.5348 5.72819 2.44453
1 13.2949 5.47816 2.91054
1 11.1903 5.74482 4.33999
2 13.2989 5.59161 4.89184
1 13.2436 3.68646 5.12007
1 13.2301 5.59534 6.82784
2 13.2476 3.69286 7.01171
1 11.4517 3.68123 7.71841
2 11.1893 3.66788 9.58364
1 11.3915 5.56863 9.95077
1 11.2158 3.7357 11.5287
2 11.3883 5.66917 11.9289
1 13.2512 5.61822 12.183
1 11.2198 5.70514 13.8861
1 13.2437 3.60561 14.6662
1 13.2461 5.66648 16.3127
2 13.2424 3.70967 16.6077
1 11.3314 3.70941 17.0013
1 13.2456 3.69963 18.5774
2 11.332 3.67284 18.9691
1 11.3363 5.55056 19.3644
1 11.3302 3.70245 20.9431
2 11.3245 5.62989 21.3143
1 13.2369 5.61094 21.7081
1 11.3259 5.60237 23.2768
2 13.2459 5.58477 23.6737
1 13.2487 3.68588 24.0736
1 13.2386 5.61146 25.6487
2 13.218 3.74107 26.0472
1 11.3799 3.6942 26.4135
1 13.2535 3.6853 28.0895
2 11.3326 7.31806 0.143844
1 11.2896 7.59838 2.11392
2 11.3366 9.48004 2.6604
1 13.2369 9.42561 2.90121
1 11.3368 9.29445 4.53281
2 13.2998 9.47004 4.87169
1 13.1123 7.50505 5.2495
1 13.1856 9.45974 6.83624
2 13.2778 7.52571 7.25117
1 11.3351 7.51394 7.51079
1 13.2408 7.50968 9.18937
2 11.3343 7.5023 9.54662
1 11.3519 9.43197 9.96347
1 11.4002 7.55358 11.5467
2 11.1443 9.41674 11.8712
1 11.4684 9.32399 13.7881
2 13.2305 9.62932 14.3934
1 13.2501 9.26033 16.1747
2 13.2425 7.489 16.7556
1 11.3311 7.5252 17.0107
1 13.2088 7.57466 18.6313
2 11.3321 7.32711 18.9332
1 11.3302 7.63375 20.8224
2 11.3124 9.41931 21.4903
1 13.2346 9.4504 21.7175
1 11.3651 9.48557 23.343
2 13.25 9.23327 23.6327
1 13.2442 7.46037 24.0716
1 13.25 9.5511 25.5235
2 13.242 7.53851 26.0171
1 11.3357 7.53667 26.4344
1 13.199 7.57522 28.0018
2 11.3343 11.5396 0.120291
1 11.3007 13.3294 0.563892
1 11.3778 11.2762 2.0249
2 11.1545 13.2174 2.46666
1 11.4543 13.2337 4.35057
2 13.2416 13.2323 5.04628
1 13.2271 11.3474 5.26385
1 13.1808 13.2057 6.90737
2 13.4319 11.3255 7.18035
1 13.1348 11.3358 9.07091
2 11.335 11.3371 9.7419
1 11.3308 13.2248 9.95746
1 11.4064 11.3016 11.6162
2 11.3374 13.2516 11.942
1 13.2827 13.3374 12.2323
1 11.4164 13.3245 14.0381
2 13.2729 13.0436 14.0094
1 13.2478 11.4326 14.8245
2 13.3128 11.0395 16.6797
1 11.3924 11.5059 16.9835
1 13.1595 11.2972 18.5584
2 11.3164 11.4788 18.9675
1 11.3342 13.2901 19.2655
1 11.3311 11.2212 20.8341
2 11.3231 13.2199 21.2919
1 13.2362 13.233 21.7301
1 11.3887 13.2391 23.301
2 13.2408 13.2463 23.6028
1 13.2356 13.253 25.4593
2 13.2461 11.3649 26.1823
1 11.354 11.3189 26.423
1 13.2468 11.3564 28.0535
2 11.5327 15.1769 0.213028
1 11.2764 17.0306 0.549483
1 11.3741 15.126 2.13962
2 11.3421 17.071 2.51812
1 13.2504 17.0787 2.92211
1 11.3686 17.1231 4.49768
2 13.2454 16.8695 4.81996
1 13.2449 15.0882 5.25142
1 13.2465 17.1124 6.70367
2 13.2406 15.1662 7.20866
1 11.3487 15.1672 7.61648
1 13.2643 15.1681 9.18565
2 11.388 15.1005 9.57717
1 11.203 17.0729 9.94641
1 11.334 15.1572 11.5332
2 11.3791 17.0702 11.9671
1 13.2868 16.9872 12.3176
1 11.3756 17.0091 13.9803
2 13.2766 17.2656 14.2019
1 13.0989 17.0208 16.1217
2 13.3559 15.3683 16.8277
1 11.4268 15.0997 16.8942
1 13.2354 15.1227 18.614
2 11.3303 15.1675 19.0608
1 11.3396 17.0681 19.2512
1 11.333 15.1514 20.9628
2 11.3322 17.0699 21.299
1 13.2367 17.0351 21.7325
1 11.3723 17.0082 23.3014
2 13.2486 17.2652 23.6304
1 13.2381 16.9301 25.519
2 13.2127 15.1289 26.1892
1 11.2446 15.1519 26.5221
1 13.3365 15.0747 28.0402
2 11.3343 18.9685 0.170451
1 11.3557 20.8858 0.57886
1 11.4037 19.0123 2.14706
2 11.1405 20.8878 2.48041
1 11.497 20.8115 4.39205
2 13.2442 21.0721 4.80365
2 13.2461 18.7592 7.44519
1 11.3964 19.0465 7.57053
1 13.2613 18.999 9.24066
2 11.3771 19.0268 9.5707
1 11.3594 20.895 9.96537
1 11.3936 19.002 11.5491
2 11.1439 20.871 11.873
1 11.4508 20.8938 13.7645
2 13.2432 20.9077 14.436
1 13.2428 19.0434 14.6594
1 13.3109 20.9409 16.3001
2 13.2908 19.0349 16.6133
1 11.344 18.831 16.9933
1 13.2356 18.9587 18.5664
2 11.332 19.0162 18.9971
1 11.3457 20.8993 19.3627
1 11.3316 18.9763 20.9416
2 11.3223 20.891 21.3281
1 13.2409 20.8929 21.717
1 11.3308 20.8867 23.2824
2 13.2585 20.9022 23.6733
1 13.2538 19.0355 24.078
1 13.2522 20.8968 25.6451
2 13.2478 18.9582 26.0207
1 11.3421 18.9705 26.4112
1 13.2467 18.9722 27.9818
2 11.3221 22.7995 0.166228
1 11.3246 24.7043 0.568047
1 11.389 22.7641 2.15439
2 11.316 24.6946 2.52548
1 13.2583 24.6953 2.90388
1 11.3944 24.7031 4.46979
2 13.2706 24.7032 4.87478
1 13.2539 22.7631 5.37375
1 13.2499 24.7698 6.83094
2 13.1964 22.9973 7.25974
1 11.3568 22.7507 7.59603
1 13.2441 22.7845 9.16274
2 11.3402 22.8256 9.57565
1 11.3351 24.8227 10.0757
1 11.3979 22.7147 11.536
2 11.3186 24.5053 11.9638
1 13.16 24.7715 12.3063
1 11.3336 24.7286 13.8748
2 13.2694 24.7097 14.2649
1 13.271 22.8026 14.6627
1 13.3122 24.6739 16.2376
2 13.0561 22.8117 16.5797
1 11.2811 22.801 17.0134
1 13.3631 22.8032 18.4684
2 11.3705 22.801 18.9636
1 11.3424 24.7092 19.3658
1 11.3436 22.793 20.9282
2 11.382 24.6613 21.3236
1 13.2597 24.71 21.7152
1 11.3295 24.7197 23.2743
2 13.2544 24.7098 23.6722
1 13.2635 22.7977 24.0671
1 13.2575 24.701 25.6398
2 13.2662 22.7974 26.0321
1 11.3316 22.8008 26.4048
1 13.1968 22.803 27.9783
2 14.9685 -0.175263 0.235276
1 15.2141 1.74132 0.455493
1 15.1791 -0.141266 2.11301
2 15.2 1.73575 2.49606
1 17.0642 1.75071 2.92103
1 15.1875 1.72938 4.4881
2 17.0664 1.97445 4.82172
1 17.07 1.67262 6.713
2 17.0977 -0.0802112 7.41049
1 15.1683 -0.133689 7.59273
1 17.009 -0.125941 9.24146
2 15.1318 -0.121479 9.57299
1 15.097 1.815 9.94768
1 15.2103 -0.164732 11.5443
2 15.1542 1.76779 11.9212
1 17.0691 1.78431 12.2988
1 15.1539 1.8001 13.8815
2 17.0671 1.72989 14.2567
1 17.07 -0.153249 14.653
1 17.067 1.77821 16.2221
2 17.0648 -0.126231 16.625
1 15.1582 -0.132172 17.0068
1 17.0766 -0.138846 18.5931
2 15.1588 -0.130043 18.9712
1 15.1569 1.77996 19.3657
1 15.1672 -0.133582 20.9387
2 15.1599 1.77975 21.3491
1 17.0664 1.77829 21.7054
1 15.1569 1.78289 23.3862
2 17.099 1.80251 23.6451
1 17.0728 -0.0787533 24.0184
1 16.9375 1.7634 25.6643
2 17.1127 -0.213406 25.8568
1 15.2862 -0.000286467 26.5191
2 15.1949 3.7222 0.16987
1 15.1448 5.60856 0.566689
1 15.0083 3.67964 2.13857
2 15.2138 5.65236 2.52315
1 17.0723 5.60603 2.9041
1 15.1668 5.59684 4.48462
2 17.0744 5.61453 4.87164
1 17.0575 3.74514 5.27918
1 17.0596 5.59885 6.84199
2 17.0458 3.67074 7.22174
1 15.0404 3.6873 7.7226
1 17.124 3.67986 9.16928
2 15.3444 3.69408 9.6177
1 15.1027 5.57052 9.95097
1 15.1292 3.69243 11.5247
2 15.1359 5.60378 11.9513
1 16.9986 5.60563 12.1705
1 15.1256 5.63802 13.8713
1 17.0653 3.60725 14.6677
1 17.0694 5.58876 16.3838
2 17.0692 3.68349 16.6162
1 15.1533 3.70988 16.9991
1 17.0674 3.69701 18.5826
2 15.1566 3.68582 18.9695
1 15.1526 5.60867 19.3505
1 15.1566 3.69065 20.9364
2 15.1534 5.60226 21.3145
1 17.0747 5.60019 21.7143
1 15.1516 5.6025 23.2786
2 17.0394 5.60588 23.6499
1 17.0732 3.69444 24.0752
1 17.201 5.6098 25.6482
2 17.0691 3.68962 26.0181
1 15.1449 3.55747 26.4002
1 17.0685 3.68955 27.9652
2 15.1457 7.50044 0.167313
1 15.1632 9.37667 0.567593
1 15.1595 7.5242 2.13741
2 15.1524 9.4522 2.51065
1 17.0652 9.44563 2.89895
1 15.163 9.43767 4.47267
2 17.07 9.4216 4.86778
1 17.0688 7.51225 5.25754
1 17.0673 9.42201 6.82818
2 17.0684 7.51251 7.22317
1 15.161 7.51929 7.61094
1 17.0655 7.50839 9.19701
2 15.1538 7.50154 9.57795
1 15.1277 9.4259 9.96704
1 15.1016 7.5412 11.5634
2 15.3523 9.40476 11.8648
1 17.1269 9.4617 12.3484
1 15.0136 9.40924 13.7862
2 16.9497 9.2357 14.1898
1 17.0627 7.51938 14.6996
1 17.2084 9.56479 16.1047
2 17.0129 7.47044 16.6157
1 15.1442 7.50262 16.9926
1 17.0662 7.52774 18.5707
2 15.1548 7.52966 18.975
1 15.2101 9.46635 19.3369
1 15.1545 7.51974 20.9349
2 15.1582 9.42289 21.3211
1 17.0694 9.42567 21.7137
1 15.119 9.48242 23.2961
2 17.0701 9.42182 23.669
1 17.0672 7.51542 24.0658
1 17.0633 9.43569 25.6435
2 17.0155 7.56242 26.0217
1 15.1356 7.52399 26.4157
1 17.0714 7.50323 27.9747
2 15.1676 11.1469 0.124282
1 15.0887 11.5039 2.01391
2 15.3416 13.2455 2.63307
1 17.1292 13.2482 2.89282
1 15.048 13.2403 4.4296
2 17.0448 13.2469 4.86955
1 17.0586 11.3415 5.24888
1 17.0597 13.2502 6.82876
2 17.069 11.3344 7.21995
1 15.2067 11.3431 7.62776
1 17.06 11.3407 9.2061
2 15.1342 11.3597 9.5745
1 15.1589 13.3508 10.0766
1 15.0799 11.2512 11.5495
2 15.1622 13.0485 11.9556
1 17.0235 13.2596 12.3294
1 15.1314 13.2831 13.9076
2 17.0194 13.4959 14.2234
1 17.0799 13.1243 16.0965
2 16.985 11.3748 16.6766
1 15.1928 11.3707 17.1049
2 14.9426 11.3358 19.0262
1 15.21 13.205 19.3338
1 15.1746 11.3381 20.9234
2 15.1568 13.2455 21.3144
1 17.0616 13.247 21.7219
1 15.0886 13.2427 23.3079
2 17.0015 13.1849 23.6751
1 17.0627 11.3247 24.0613
1 17.0729 13.2482 25.6436
2 17.0533 11.3397 26.0244
1 15.1415 11.3663 26.4282
1 17.0601 11.4548 28.0232
2 15.1849 15.3453 0.128369
1 15.1683 17.1216 0.572429
1 15.0862 14.9907 2.02031
2 15.1518 17.0529 2.51011
1 17.0485 17.0479 2.90596
1 15.1206 17.1171 4.48697
2 17.053 17.0776 4.87527
1 17.0571 15.1545 5.24409
1 17.0617 17.0576 6.83913
2 17.074 15.1541 7.21276
1 15.149 15.1588 7.55027
1 17.0545 15.1607 9.19405
2 15.157 15.1533 9.40807
1 15.156 16.9594 10.0732
2 15.1646 17.2705 11.9593
1 17.0547 17.0753 12.288
1 15.1286 16.9804 13.8688
2 17.0581 17.0909 14.2802
1 17.0657 15.238 14.6721
1 17.0633 17.0745 16.2482
2 17.0674 15.1332 16.6154
1 15.1442 15.0751 16.9684
1 17.0628 15.1485 18.5735
2 15.1644 15.1466 18.978
1 15.1586 17.0657 19.3624
1 15.1511 15.1438 20.9415
2 15.1053 17.0221 21.317
1 17.0613 17.2488 21.7436
1 15.1445 17.0792 23.303
2 16.9894 16.8898 23.6504
1 17.1955 15.1003 24.0632
1 17.0717 17.181 25.5238
2 17.0313 15.1771 26.0417
1 15.1422 15.1416 26.414
1 17.0521 15.0407 28.0073
2 15.1475 19.0005 0.173632
1 15.1964 20.9283 0.558148
1 15.0832 19.0248 2.15385
2 15.3497 20.8835 2.48185
1 17.1189 20.8971 2.92618
1 14.993 20.8144 4.39439
2 17.0499 20.8642 4.86828
1 17.0588 18.9845 5.26329
1 17.0602 20.7964 6.82164
2 17.0492 18.9281 7.23042
1 15.0967 19.0526 7.56743