1816
Atoms. Timestep: 481
2 -0.243423 -0.163931 0.278947
1 -0.208724 1.72168 0.66335
1 -0.199156 -0.207844 2.21847
2 -0.20191 1.71717 2.60928
1 1.71355 1.71617 2.99627
1 -0.205751 1.71636 4.55643
2 1.71331 1.71591 4.94246
1 1.71628 -0.206256 5.32565
1 1.71879 1.71099 6.88839
2 1.71578 -0.207134 7.27101
1 -0.210401 -0.211629 7.66378
1 1.72755 -0.202006 9.21662
2 -0.136418 -0.169651 9.59152
1 -0.209761 1.71417 9.99879
1 -0.329122 -0.205763 11.5637
2 -0.165267 1.75583 11.9383
1 1.72448 1.72634 12.3283
1 -0.209133 1.70468 13.8775
2 1.67612 1.6744 14.2716
1 1.71315 -0.210958 14.6579
1 1.7257 1.71282 16.2138
2 1.72252 -0.205188 16.6067
1 -0.189421 -0.204685 16.9641
1 1.70671 -0.205045 18.5672
2 -0.208656 -0.207079 18.8113
1 -0.205806 1.63048 19.3948
2 -0.207799 1.82452 21.2689
1 1.6869 1.68262 21.6449
1 -0.20409 1.82438 23.2092
2 1.72994 1.67975 23.5771
1 1.72374 -0.207556 23.9845
1 1.8231 1.71927 25.5516
2 1.6739 -0.212919 25.9096
1 -0.204526 -0.215093 26.3276
1 1.7101 -0.322985 27.8857
2 -0.195641 3.63555 0.26113
1 -0.206658 5.56161 0.648923
1 -0.204776 3.6403 2.21969
2 -0.200468 5.55618 2.62395
1 1.71732 5.55879 2.98981
1 -0.201893 5.55761 4.62069
2 1.74628 5.55856 4.92041
1 1.7102 3.63996 5.33103
1 1.59351 5.55924 6.8984
2 1.75755 3.60068 7.27274
1 -0.204371 3.75927 7.64668
1 1.70891 3.63941 9.21629
2 -0.208242 3.61057 9.62632
1 -0.206917 5.56099 9.93084
1 -0.202077 3.64488 11.5554
2 -0.203105 5.56066 11.9354
1 1.72183 5.5598 12.3379
1 -0.220199 5.56589 13.9481
2 1.64872 5.5579 14.2517
1 1.83064 3.63983 14.6495
1 1.64546 5.58973 16.2338
2 1.72719 3.59536 16.6268
1 -0.200822 3.76194 16.9856
1 1.71052 3.64155 18.5507
2 -0.207115 3.59165 18.98
1 -0.203642 5.56121 19.2527
1 -0.206253 3.6607 20.9471
2 -0.205797 5.59329 21.2314
1 1.71348 5.55325 21.6586
1 -0.203942 5.44096 23.231
2 1.76124 5.59454 23.5984
1 1.60369 3.63617 23.979
1 1.66677 5.58361 25.5518
2 1.70743 3.68314 25.9559
1 -0.211377 3.64494 26.2536
1 1.71535 3.63264 27.8795
2 -0.248166 7.44198 0.396615
1 -0.085762 9.38765 0.632886
1 -0.198558 7.47776 2.24252
2 -0.237532 9.37254 2.60997
1 1.70882 9.40463 2.93277
1 -0.205861 9.52292 4.57087
2 1.75538 9.3639 4.92251
1 1.71463 7.47465 5.3314
1 1.71052 9.40392 6.87911
2 1.75594 7.51763 7.2742
1 -0.203608 7.35909 7.64748
1 1.70924 7.4791 9.21701
2 -0.206166 7.50659 9.63052
1 -0.204772 9.40814 9.96812
1 -0.202876 7.49037 11.5727
2 -0.201155 9.40447 11.817
1 1.64664 9.40026 12.4098
2 1.75223 9.40441 14.295
1 1.82977 7.49889 14.6571
1 1.76469 9.37715 16.2039
2 1.58344 7.52756 16.6001
1 -0.233031 7.36324 16.9779
1 1.79557 7.47548 18.4753
2 -0.192261 7.51138 18.9513
1 -0.203502 9.40117 19.3267
1 -0.201985 7.48604 20.8807
2 -0.206715 9.40399 21.2754
1 1.71543 9.40846 21.6604
1 -0.210866 9.39772 23.2213
2 1.67825 9.36746 23.6147
1 1.69656 7.48195 24.0006
1 1.68475 9.37173 25.6199
2 1.86113 7.45277 25.8886
1 1.6307 7.60676 27.8161
2 -0.248949 11.3345 0.320314
1 -0.207509 13.2526 0.594716
1 -0.199853 11.3196 2.28411
2 -0.206532 13.2743 2.56825
1 1.71083 13.2462 2.99523
1 -0.208836 13.126 4.55956
2 1.72387 13.2854 4.91937
1 1.60194 11.325 5.31959
1 1.83334 13.2391 6.89403
2 1.70659 11.2829 7.29653
1 -0.210233 11.3206 7.59611
1 1.71946 11.3295 9.22075
2 -0.204692 11.3285 9.59103
1 -0.205646 13.2389 9.99934
1 -0.206064 11.3154 11.5678
2 -0.204068 13.2437 11.9542
1 1.71993 13.2403 12.3247
1 -0.203329 13.2433 13.9495
2 1.7102 13.2892 14.2494
1 1.79981 11.3044 14.6375
1 1.59688 13.2436 16.226
2 1.72879 11.2822 16.6274
1 -0.207633 11.4456 16.972
1 1.70383 11.3295 18.5487
2 -0.210139 11.2955 18.9568
1 -0.217838 13.2485 19.2655
1 -0.20572 11.3225 20.8861
2 -0.17712 13.2045 21.2695
1 1.70143 13.235 21.6594
1 -0.191125 13.2561 23.2678
2 1.7124 13.2906 23.5802
1 1.82091 11.3262 23.9792
1 1.60285 13.2475 25.5539
2 1.72393 11.3088 25.9324
1 -0.20935 11.4364 26.3159
1 1.70981 11.2122 27.8886
2 -0.201514 15.2002 0.293075
1 -0.200627 17.0946 0.667619
1 -0.205906 15.1728 2.22355
2 -0.205138 17.0923 2.62915
1 1.72124 17.0885 2.97797
1 -0.20374 17.0899 4.61976
2 1.74077 17.0902 4.91863
1 1.7214 15.1723 5.3337
1 1.59099 17.0929 6.89908
2 1.71379 15.1667 7.27399
1 -0.210561 15.2932 7.65066
1 1.71622 15.167 9.21245
2 -0.20598 15.135 9.62686
1 -0.205976 17.0862 9.92583
1 -0.204621 15.1659 11.5576
2 -0.20395 17.0858 11.9242
1 1.71377 17.0888 12.3252
1 -0.209703 17.0897 13.8977
2 1.71535 17.0901 14.2689
1 1.70797 15.1702 14.6615
1 1.71781 17.0886 16.217
2 1.75939 15.2032 16.5994
1 -0.219057 15.0736 16.9646
1 1.70723 15.1615 18.5387
2 -0.171511 15.1932 18.9417
1 -0.216869 17.0865 19.3261
1 -0.325545 15.1613 20.8979
2 -0.167558 17.1276 21.2715
1 1.71669 17.0942 21.6559
1 -0.207922 17.0819 23.2135
2 1.71761 17.0875 23.6035
1 1.70802 15.1702 23.9923
1 1.72066 17.0892 25.5524
2 1.7567 15.2021 25.933
1 -0.204764 15.0438 26.3071
1 1.73816 15.2019 27.8866
2 -0.200541 19.0111 0.275936
1 -0.207053 20.9258 0.665208
1 -0.204809 19.0112 2.22369
2 -0.2018 20.9313 2.62681
1 1.72057 20.9296 2.99037
1 -0.205305 20.9321 4.62086
2 1.74559 20.9328 4.9203
1 1.70227 19.0107 5.33463
1 1.59316 20.9343 6.90112
2 1.81312 19.0108 7.26776
1 -0.206825 19.01 7.61965
1 1.7051 19.0107 9.20571
2 -0.209212 19.0093 9.66338
1 -0.206076 20.93 9.93034
1 -0.206252 19.0098 11.5654
2 -0.204434 20.9338 11.9414
1 1.71485 20.9331 12.3211
1 -0.209604 20.9308 13.9484
2 1.74543 20.9318 14.2511
1 1.70998 19.0135 14.6615
1 1.59551 20.93 16.2301
2 1.75559 18.9731 16.6041
1 -0.23197 19.0973 16.9669
1 1.71102 19.0163 18.545
2 -0.207587 18.9844 18.9593
1 -0.21233 20.9329 19.2541
1 -0.200893 19.016 20.8861
2 -0.206946 20.9284 21.2508
1 1.71589 20.9315 21.652
1 -0.211154 20.933 23.2089
2 1.68712 20.9304 23.5797
1 1.72215 19.0118 23.9902
1 1.84188 20.9296 25.5605
2 1.67212 18.9757 25.9316
1 -0.209338 19.0098 26.3214
1 1.74162 18.9757 27.8849
2 -0.245532 22.8129 0.276428
1 -0.0803139 24.7752 0.648546
1 -0.199205 22.8551 2.21815
2 -0.236117 24.7746 2.62853
1 1.71401 24.7759 2.92791
1 -0.206579 24.7756 4.55821
2 1.7122 24.775 4.92453
1 1.71016 22.8522 5.33089
1 1.71943 24.7807 6.88423
2 1.75553 22.8956 7.27302
1 -0.208599 22.7386 7.65297
1 1.71863 22.8451 9.21562
2 -0.16468 22.8449 9.6285
1 -0.332177 24.7778 9.98588
1 -0.208348 22.8516 11.5523
2 -0.134464 24.7397 11.9529
1 1.72788 24.7719 12.3279
1 -0.20608 24.7836 13.879
2 1.71652 24.7751 14.2736
1 1.70898 22.8516 14.6609
1 1.71982 24.7806 16.2186
2 1.75649 22.893 16.6034
1 -0.201079 22.7332 16.9833
1 1.71101 22.8497 18.5472
2 -0.209328 22.9022 18.9588
1 -0.206893 24.8603 19.4015
1 -0.205531 22.8299 20.882
2 -0.206237 24.6342 21.2969
1 1.69004 24.8157 21.648
1 -0.198491 24.7912 23.1998
2 1.72109 24.771 23.6175
1 1.72076 22.8512 23.9869
1 1.71662 24.7757 25.6116
2 1.6746 22.8624 25.9107
1 -0.2091 22.8639 26.3242
1 1.71854 22.9687 27.8871
2 3.5816 -0.175677 0.297231
1 3.76274 1.72488 0.576529
1 3.64764 -0.210847 2.20581
2 3.60826 1.71404 2.62074
1 5.55799 1.71474 2.9262
1 3.63734 1.71695 4.55719
2 5.55972 1.71376 4.92085
1 5.55875 -0.205875 5.32628
1 5.56063 1.71066 6.88233
2 5.56322 -0.205779 7.27501
1 3.63897 -0.205499 7.65878
1 5.56102 -0.204856 9.21954
2 3.64049 -0.209111 9.60435
1 3.63329 1.71102 9.98921
1 3.63912 -0.210109 11.5501
2 3.64097 1.68523 11.9193
1 5.55718 1.72189 12.3295
1 3.63715 1.84043 13.898
2 5.5985 1.67621 14.2715
1 5.5626 -0.210754 14.6576
1 5.5532 1.71921 16.2142
2 5.55601 -0.2049 16.6022
1 3.63599 -0.205779 16.9914
1 5.55544 -0.20601 18.5477
2 3.63791 -0.204723 18.9363
1 3.63754 1.71777 19.3246
1 3.63206 -0.204326 20.8837
2 3.63262 1.71798 21.2862
1 5.5539 1.71692 21.6569
1 3.64551 1.71104 23.2818
2 5.59082 1.70198 23.5935
1 5.5521 -0.281835 24.0554
1 5.43954 1.74256 25.6298
2 5.60548 -0.101942 25.9094
1 3.67205 -0.125469 26.3099
1 5.55934 -0.222872 27.9027
2 3.60312 3.70751 0.292679
1 3.63543 5.56797 0.664814
1 3.6437 3.63295 2.22008
2 3.64115 5.5589 2.61
1 5.55957 5.55917 2.99616
1 3.64313 5.55997 4.55246
2 5.56008 5.55836 4.95802
1 5.55936 3.63668 5.32372
1 5.56066 5.55862 6.95237
2 5.56046 3.60833 7.25313
1 3.64556 3.64061 7.66718
1 5.55879 3.75721 9.23216
2 3.59764 3.59876 9.62271
1 3.7561 5.55911 9.97148
1 3.6434 3.63706 11.614
2 3.60605 5.55854 11.8992
1 5.54947 5.56023 12.276
1 3.63752 5.56208 13.929
2 5.65544 5.55781 14.2616
1 5.43895 3.63877 14.6461
1 5.50056 5.59004 16.2176
2 5.58963 3.64355 16.6241
1 3.64236 3.63983 16.9265
1 5.5602 3.63652 18.5544
2 3.63671 3.63853 18.9207
1 3.63817 5.56701 19.3065
1 3.63714 3.63743 20.8792
2 3.63791 5.5526 21.2666
1 5.56082 5.55818 21.6546
1 3.64314 5.56228 23.2155
2 5.55877 5.5573 23.5971
1 5.55425 3.63132 23.9891
1 5.56539 5.57062 25.5445
2 5.60047 3.71048 25.9199
1 3.64139 3.51101 26.3149
1 5.56097 3.50873 27.8879
2 3.67353 7.44399 0.273196
1 3.5217 9.4009 0.653239
1 3.62343 7.47951 2.21529
2 3.62923 9.36344 2.63128
1 5.56315 9.52191 2.98643
1 3.64512 9.40395 4.55415
2 5.56119 9.3753 4.96053
1 5.55855 7.47633 5.32641
1 5.56253 9.40156 6.88718
2 5.55998 7.50667 7.25568
1 3.64493 7.47801 7.66616
1 5.55856 7.36172 9.23272
2 3.59777 7.51712 9.62089
1 3.63096 9.40318 9.9873
1 3.6417 7.48112 11.6196
2 3.62614 9.40225 11.8885
1 5.54733 9.40217 12.3385
1 3.65125 9.40208 13.929
2 5.6563 9.40352 14.2761
1 5.4062 7.47959 14.6674
1 5.49791 9.36862 16.2179
2 5.73468 7.47993 16.591
1 5.47801 7.47981 18.4752
2 3.63986 7.47794 19.0605
1 3.63979 9.39431 19.3099
1 3.63384 7.46839 20.9077
2 3.60359 9.33591 21.2518
1 5.55815 9.51921 21.6488
1 3.63709 9.52878 23.2252
2 5.59661 9.33223 23.6164
1 5.56062 7.47048 23.9907
1 5.554 9.40757 25.5444
2 5.56665 7.48459 25.9373
1 3.65885 7.48805 26.3301
1 5.56638 7.47984 27.8797
2 3.64821 11.359 0.234455
1 3.64547 13.2098 0.678034
1 3.75176 11.3231 2.22867
2 3.59902 13.3054 2.62286
1 5.5569 13.1266 2.97961
1 3.64418 13.247 4.6116
2 5.59161 13.2765 4.94091
1 5.554 11.3269 5.26661
1 5.44107 13.2463 6.90123
2 5.59932 11.2858 7.25674
1 3.6422 11.4422 7.65484
1 5.5567 11.3312 9.21432
2 3.64099 11.2992 9.64586
1 3.63683 13.2472 9.92415
1 3.6359 11.3241 11.6221
2 3.64007 13.2748 11.8978
1 5.55664 13.2395 12.3309
1 3.63995 13.121 13.8919
2 5.59684 13.2845 14.2894
1 5.43563 11.3237 14.6447
1 5.55495 13.2431 16.2835
2 5.59018 11.2876 16.6126
1 3.64655 11.3216 16.9313
1 5.55898 11.4321 18.6368
2 3.571 11.289 18.9141
1 3.76928 13.2423 19.3187
1 3.76224 11.3239 20.9618
2 3.52011 13.2776 21.2537
1 5.56019 13.2427 21.5448
1 3.65463 13.1259 23.2096
2 5.59927 13.2823 23.649
1 5.44076 11.3226 23.9022
1 5.55196 13.2353 25.5505
2 5.58939 11.3203 25.9649
1 3.64013 11.3132 26.254
1 5.56537 11.327 27.9458
2 3.60665 14.9741 0.243352
1 3.64251 15.2662 2.13001
2 3.61757 17.0879 2.76641
1 5.5479 17.0918 2.9068
1 3.64237 17.0897 4.59166
2 5.55949 17.09 4.92222
1 5.55287 15.1706 5.33332
1 5.563 17.0949 6.8844
2 5.59765 15.2098 7.27605
1 3.64176 15.0432 7.64821
1 5.5571 15.1615 9.21739
2 3.63774 15.2 9.62424
1 3.63762 17.0947 9.99459
1 3.63737 15.1721 11.5532
2 3.63761 17.0912 11.9414
1 5.55936 17.0887 12.3218
1 3.63632 17.0899 13.8867
2 5.55216 17.0919 14.2692
1 5.56313 15.1723 14.657
1 5.55798 17.0926 16.216
2 5.55781 15.1971 16.5928
1 3.6488 15.1639 16.9949
1 5.55905 15.0589 18.6325
2 3.56995 15.2032 18.9213
1 3.6397 17.0917 19.3252
1 3.76531 15.1714 20.8897
2 3.60239 17.1296 21.269
1 5.55898 16.9765 21.6487
1 3.6408 17.0815 23.2113
2 5.55663 17.1207 23.6413
1 5.56257 15.1752 23.9182
1 5.55728 17.0846 25.6183
2 5.55821 15.1374 25.8965
1 3.64646 15.2012 26.344
1 5.51478 15.3278 27.9049
2 3.60345 19.1641 0.272548
1 3.63792 20.9549 0.605271
1 3.64779 18.9133 2.13877
2 3.63523 20.9164 2.58789
1 5.53019 20.9312 2.99755
1 3.64231 20.9288 4.54824
2 5.57163 20.9324 4.93933
1 5.5601 19.0122 5.32516
1 5.56493 20.9333 6.88527
2 5.5601 19.0108 7.27299
1 3.65379 19.0116 7.66219
1 5.55897 19.0104 9.22164
2 3.6349 19.0111 9.60739
1 3.63741 20.9315 9.9916
1 3.63735 19.011 11.5533
2 3.63942 20.9321 11.9364
1 5.56053 20.9321 12.3241
1 3.64221 20.932 13.8824
2 5.55926 20.9323 14.2712
1 5.55953 19.0115 14.6574
1 5.5613 20.9318 16.218
2 5.55913 19.0107 16.6042
1 3.64305 19.0067 16.9908
1 5.56003 19.0126 18.5513
2 3.63924 19.0134 18.936
1 3.63851 20.9325 19.3252
1 3.63412 19.017 20.8821
2 3.6365 20.9337 21.2859
1 5.55398 20.933 21.6548
1 3.64023 20.9343 23.2812
2 5.58877 20.9496 23.5808
1 5.55453 19.0184 23.9889
1 5.43683 20.906 25.5517
2 5.60189 18.9972 25.9131
1 3.63907 19.1093 26.3271
1 5.51455 18.8566 27.9048
2 3.63761 22.7966 0.297185
1 3.638 24.7738 0.62302
1 3.6388 22.8638 2.21497
2 3.63803 24.7761 2.66992
1 5.56405 24.774 2.92403
1 3.63698 24.7745 4.56692
2 5.55917 24.775 4.92393
1 5.55987 22.852 5.32611
1 5.56298 24.7752 6.88414
2 5.56337 22.8537 7.2741
1 3.6438 22.8567 7.66014
1 5.56044 22.8521 9.21959
2 3.6389 22.8527 9.60708
1 3.63816 24.7739 9.99124
1 3.6371 22.8535 11.5529
2 3.64015 24.7754 11.9387
1 5.56041 24.7756 12.3242
1 3.63792 24.7735 13.8867
2 5.55873 24.7739 14.2707
1 5.55956 22.8536 14.6569
1 5.55948 24.7754 16.2183
2 5.55368 22.8531 16.6013
1 3.6421 22.8571 16.9907
1 5.55584 22.8544 18.5497
2 3.6366 22.852 18.9378
1 3.63739 24.7746 19.3219
1 3.63606 22.8543 20.8846
2 3.62714 24.775 21.2711
1 5.54218 24.7751 21.6296
1 3.64488 24.7745 23.23
2 5.55939 24.7745 23.475
1 5.55309 22.934 24.0638
2 5.60888 22.7163 25.9425
1 3.66596 22.7782 26.3024
1 5.55863 23.0005 27.8664
2 7.57726 -0.204292 0.281929
1 7.37029 1.71638 0.650218
1 7.46607 -0.207166 2.21361
2 7.51006 1.71658 2.63115
1 9.40789 1.71162 2.99937
1 7.48414 1.71345 4.55951
2 9.40612 1.69959 4.94517
1 9.41081 -0.293704 5.41854
1 9.40022 1.75572 6.88128
2 9.37048 -0.0134875 7.30584
1 7.50497 -0.246285 7.65026
1 9.40816 -0.239366 9.19769
2 7.47964 -0.203377 9.60805
1 7.48581 1.7101 9.99162
1 7.48114 -0.205812 11.5542
2 7.47932 1.71831 11.9387
1 9.4019 1.71671 12.3239
1 7.48624 1.71347 13.8844
2 9.40382 1.71667 14.2717
1 9.40166 -0.207251 14.6608
1 9.40334 1.71422 16.2188
2 9.40252 -0.211272 16.6202
1 7.48115 -0.206108 16.9852
1 9.39742 -0.201263 18.6147
2 7.45107 -0.206598 18.9153
1 7.48717 1.71393 19.3259
1 7.6026 -0.204691 20.8963
2 7.44313 1.75644 21.2665
1 9.40325 1.59428 21.6443
1 7.48677 1.71017 23.2107
2 9.40177 1.76375 23.6247
1 9.40396 -0.201698 23.921
1 9.40119 1.68916 25.5482
2 9.39641 -0.209082 25.9168
1 7.44863 -0.253102 26.3236
1 9.41166 -0.199862 27.8736
2 7.51845 3.67307 0.278194
1 7.48659 5.56399 0.657084
1 7.47397 3.63505 2.2183
2 7.47936 5.55769 2.60761
1 9.40227 5.55986 2.99376
1 7.48026 5.55918 4.55491
2 9.40165 5.55863 4.94075
1 9.40239 3.63719 5.32479
1 9.4044 5.56038 6.8872
2 9.40258 3.64753 7.27327
1 7.47833 3.64366 7.66428
1 9.40801 3.63426 9.21953
2 7.52013 3.59847 9.60654
1 7.36194 5.55956 9.98126
1 7.47418 3.64111 11.5487
2 7.50932 5.55894 11.9575
1 9.40804 5.56013 12.3264
1 7.49654 5.56177 13.8872
2 9.40883 5.55778 14.2736
1 9.40325 3.6376 14.6571
1 9.40256 5.55872 16.2183
2 9.40311 3.63722 16.6034
1 7.48422 3.63987 16.9916
1 9.40306 3.63775 18.5502
2 7.48432 3.63816 18.938
1 7.4782 5.56178 19.321
1 7.47787 3.64359 20.8835
2 7.47882 5.55943 21.2715
1 9.40238 5.56084 21.6278
1 7.48992 5.5586 23.2318
2 9.40262 5.55965 23.4755
1 9.40227 3.7232 24.0676
2 9.40235 3.4924 25.9619
1 7.51008 3.67397 26.3138
1 9.40782 3.66146 27.8637
2 7.47774 7.48715 0.276506
1 7.47501 9.40475 0.665031
1 7.48408 7.47574 2.22176
2 7.52025 9.363 2.60829
1 9.4028 9.39911 2.9978
1 7.47815 9.40955 4.55259
2 9.40014 9.40399 4.94386
1 9.40255 7.48149 5.32621
1 9.40071 9.40228 6.88758
2 9.39511 7.48138 7.2717
1 7.47785 7.47543 7.66383
1 9.4023 7.48084 9.22083
2 7.51905 7.52126 9.60686
1 7.48232 9.40853 9.9926
1 7.47411 7.47903 11.55
2 7.47664 9.40407 11.9366
1 9.40006 9.40839 12.3308
1 7.49062 9.39726 13.8834
2 9.36626 9.36346 14.2739
1 9.39908 7.47559 14.6577
1 9.40773 9.40589 16.2144
2 9.41138 7.48098 16.6043
1 7.51585 7.48198 16.9966
1 9.40196 7.48229 18.553
2 7.46529 7.47985 18.9353
1 7.4746 9.39806 19.326
1 7.48132 7.47581 20.8813
2 7.51867 9.36421 21.2687
1 9.40727 9.39776 21.6579
1 7.48525 9.40556 23.2112
2 9.40389 9.38964 23.6046
1 9.40181 7.39911 24.0638
1 9.40185 9.42774 25.5428
2 9.40292 7.62765 25.9602
1 7.50819 7.44126 26.3088
1 9.39695 7.45736 27.8635
2 7.51132 11.3222 0.258418
1 7.47651 13.2408 0.665068
1 7.36061 11.3242 2.23492
2 7.5199 13.2858 2.60689
1 9.40782 13.2496 2.99336
1 7.4837 13.2408 4.54827
2 9.404 13.2433 4.94146
1 9.40371 11.3238 5.32716
1 9.40029 13.2395 6.88771
2 9.4013 11.3221 7.27268
1 7.4851 11.3209 7.66018
1 9.39839 11.3286 9.22092
2 7.4786 11.3263 9.60701
1 7.48265 13.2464 9.99253
1 7.48034 11.3238 11.5526
2 7.47904 13.2438 11.9373
1 9.39955 13.235 12.3282
1 7.48114 13.2542 13.8853
2 9.36461 13.2926 14.2724
1 9.52539 11.3258 14.6443
1 9.40296 13.2395 16.2113
2 9.37352 11.3244 16.6209
1 7.47471 11.3301 16.9989
1 9.41341 11.3225 18.5509
2 7.54904 11.2866 18.9252
1 7.34932 13.2458 19.3176
1 7.36505 11.3246 20.8901
2 7.60185 13.244 21.2732
1 9.42544 13.2463 21.6598
1 7.4724 13.2488 23.2003
2 9.40286 13.2453 23.6042
1 9.40327 11.324 23.9849
1 9.39868 13.2409 25.5484
2 9.40538 11.3269 25.9307
1 7.48438 11.3244 26.3185
1 9.40221 11.3273 27.877
2 7.51284 15.1317 0.276607
1 7.39519 17.0916 0.657961
1 7.47944 15.1762 2.21842
2 7.50763 17.0958 2.62532
1 9.41235 17.0992 3.00238
1 7.46747 17.0848 4.55308
2 9.33565 17.0516 4.92889
1 9.40534 15.1648 5.33069
1 9.52742 17.0926 6.89484
2 9.36424 15.1269 7.27152
1 7.48123 15.1683 7.66015
1 9.40084 15.1744 9.21462
2 7.48034 15.1671 9.60798
1 7.48296 17.0886 9.99432
1 7.48191 15.1687 11.5546
2 7.49419 17.0884 11.9387
1 9.47863 17.0929 12.4002
1 7.44553 17.088 13.877
2 9.22564 17.0894 14.2871
1 9.44944 15.2043 14.6512
1 9.54675 17.0892 16.2064
2 9.36329 15.1247 16.6013
1 7.47134 15.1561 16.9929
1 9.41568 15.1765 18.5422
2 7.54938 15.2056 18.9223
1 7.47729 17.091 19.3264
1 7.35334 15.1656 20.8938
2 7.51736 17.1275 21.267
1 9.40771 17.0899 21.6516
1 7.47229 17.0827 23.2087
2 9.3712 17.0876 23.5817
1 9.40808 15.169 23.9915
1 9.52187 17.0885 25.559
2 9.36148 15.1297 25.9334
1 7.46792 15.1686 26.3286
1 9.40871 15.169 27.8762
2 7.51104 19.044 0.276427
1 7.50579 20.9303 0.678223
1 7.51537 19.0356 2.22939
2 7.33137 20.931 2.58069
1 7.54846 20.9355 4.47689
2 9.30743 20.9455 5.07152
1 9.53003 19.0196 5.2965
1 9.41766 20.9003 6.89942
2 9.33267 19.0374 7.28723
1 7.47042 19.0149 7.66227
1 9.4056 19.0023 9.21776
2 7.47916 19.0095 9.60926
1 7.48193 20.9319 9.98992
1 7.48485 19.0088 11.5545
2 7.48437 20.9312 11.9392
1 9.42444 20.9722 12.3169
1 7.48384 20.9292 13.8865
2 9.39651 20.9222 14.2736
1 9.45379 18.9796 14.6499
1 9.4374 20.9636 16.2269
2 9.36083 19.0568 16.6019
1 7.47736 19.0137 16.9889
1 9.40504 19.0013 18.5449
2 7.48082 19.0109 18.9356
1 7.49038 20.937 19.3248
1 7.4814 19.0109 20.8816
2 7.44287 20.8931 21.2669
1 9.40407 21.0557 21.64
1 7.48564 20.9391 23.2098
2 9.40052 20.9017 23.6217
1 9.40713 19.0031 23.9948
1 9.39837 20.9385 25.5525
2 9.36342 19.0474 25.9371
1 7.47568 19.0054 26.3299
1 9.40977 19.0123 27.8819
2 7.51652 22.8148 0.274931
1 7.35409 24.7727 0.645322
1 7.51529 22.8289 2.22989
2 7.50677 24.7704 2.6276
1 9.40774 24.7641 2.96859
1 7.47851 24.7769 4.57102
2 9.34372 24.8183 4.79358
1 9.53851 22.9394 5.38833
2 9.33991 22.6676 7.32399
1 7.50046 22.8928 7.65219
1 9.41055 22.8873 9.21266
2 7.47671 22.85 9.60914
1 7.48459 24.7752 9.98644
1 7.48521 22.8535 11.5523
2 7.48593 24.7755 11.9368
1 9.43123 24.735 12.3143
1 7.48294 24.7764 13.8842
2 9.39787 24.7805 14.2712
1 9.42674 22.8532 14.6719
1 9.4424 24.7478 16.228
2 9.26031 22.8566 16.5912
1 7.45619 22.8534 16.9909
1 9.47303 22.8505 18.5357
2 7.46097 22.8544 18.9135
1 7.49766 24.7725 19.3314
1 7.60566 22.853 20.8927
2 7.38735 24.7755 21.266
1 9.39855 24.7749 21.617
1 7.47961 24.7754 23.2188
2 9.40072 24.7748 23.6594
1 9.40282 22.8509 23.9226
1 9.39692 24.7756 25.5578
2 9.40003 22.8547 25.9192
1 7.4575 22.909 26.3135
1 9.40158 22.8414 27.8808
2 11.2877 -0.163761 0.275619
1 11.3199 1.72226 0.661935
1 11.3343 -0.205176 2.21746
2 11.3308 1.71662 2.61004
1 13.2739 1.67625 2.98436
1 11.3244 1.71607 4.55475
2 13.2425 1.71854 4.94137
1 13.2517 -0.211129 5.33558
1 13.2433 1.73032 6.88656
2 13.2373 -0.112899 7.27672
1 11.279 -0.360141 7.6386
1 13.2386 -0.221485 9.2067
2 11.3252 -0.185123 9.63017
1 11.324 1.7189 9.9915
1 11.3246 -0.180413 11.5514
2 11.324 1.72332 11.941
1 13.2459 1.71561 12.3238
1 11.3242 1.71571 13.8859
2 13.2444 1.71781 14.2694
1 13.2455 -0.207549 14.6547
1 13.2457 1.72028 16.2153
2 13.2469 -0.179157 16.5814
1 11.3265 -0.21576 16.9908
1 13.2484 -0.325503 18.5609
2 11.3141 -0.161894 18.913
1 11.3146 1.71973 19.327
1 11.2092 -0.208498 20.8911
2 11.3629 1.75665 21.2671
1 13.2508 1.71971 21.6526
1 11.3147 1.71101 23.2089
2 13.2147 1.71711 23.5803
1 13.2468 -0.198927 23.9886
1 13.3645 1.72041 25.5581
2 13.2031 -0.214741 25.9129
1 11.3232 -0.216005 26.3254
1 13.2576 -0.319432 27.9072
2 11.3286 3.63226 0.277534
1 11.318 5.55349 0.657403
1 11.3266 3.63677 2.22368
2 11.3232 5.56033 2.60715
1 13.2393 5.55486 2.99508
1 11.3245 5.56117 4.55681
2 13.2411 5.55874 4.93843
1 13.2445 3.6392 5.32554
1 13.2865 5.577 6.89441
2 13.2454 3.64443 7.27324
1 11.3257 3.63995 7.65893
1 13.245 3.63599 9.22068
2 11.3259 3.6383 9.60619
1 11.3257 5.55717 9.99118
1 11.3241 3.63875 11.5531
2 11.3254 5.55932 11.9397
1 13.2462 5.55986 12.3235
1 11.3252 5.55837 13.8857
2 13.2454 5.55861 14.2708
1 13.246 3.63833 14.6569
1 13.2459 5.55922 16.2184
2 13.2457 3.63839 16.6044
1 11.3241 3.63763 16.9899
1 13.2457 3.63895 18.5515
2 11.3231 3.63912 18.9357
1 11.3246 5.55977 19.3222
1 11.3278 3.644 20.8836
2 11.3248 5.56144 21.271
1 13.2389 5.55527 21.6554
1 11.3148 5.55885 23.2321
2 13.243 5.55889 23.5985
1 13.2531 3.63506 23.9902
1 13.2393 5.5602 25.5437
2 13.2008 3.67666 25.9354
1 11.292 3.682 26.3101
1 13.2494 3.62816 27.8759
2 11.2859 7.445 0.277817
1 11.4432 9.40214 0.649321
1 11.3295 7.4837 2.21849
2 11.2932 9.40285 2.62708
1 13.2405 9.40691 2.92956
1 11.3221 9.40264 4.55913
2 13.218 9.40151 4.90917
1 13.277 7.48755 5.34869
1 13.4077 9.35616 6.98745
2 13.0562 7.42053 7.22556
1 11.2909 7.48692 7.67182
1 13.3474 7.61522 9.13971
2 11.294 7.44039 9.6023
1 11.4348 9.39785 9.97961
1 11.3354 7.47921 11.5411
2 11.2921 9.37022 11.941
1 13.2457 9.40754 12.2588
1 11.3248 9.52396 13.9004
2 13.2867 9.3625 14.2523
1 13.2491 7.4764 14.6574
1 13.2366 9.39872 16.2104
2 13.243 7.48006 16.6025
1 11.3242 7.48074 16.9903
1 13.241 7.48133 18.5473
2 11.3234 7.48107 18.9372
1 11.3247 9.40382 19.3218
1 11.3223 7.48076 20.8839
2 11.3244 9.40285 21.2684
1 13.2398 9.40615 21.6582
1 11.3225 9.40079 23.2168
2 13.245 9.40106 23.6198
1 13.2464 7.48152 23.9843
1 13.2436 9.40142 25.6137
2 13.2392 7.45371 25.9124
1 11.2984 7.44648 26.3132
1 13.2403 7.60111 27.887
2 11.2854 11.3636 0.276162
1 11.3202 13.2463 0.665242
1 11.3322 11.3212 2.21925
2 11.3252 13.2431 2.60959
1 13.2459 13.2461 2.99173
1 11.3204 13.2432 4.55324
2 13.2153 13.245 4.91839
1 13.2604 11.3156 5.33847
1 13.3722 13.2475 6.89583
2 13.1537 11.3481 7.25172
1 11.3144 11.3129 7.66755
1 13.2543 11.2051 9.21837
2 11.2867 11.3633 9.62243
1 11.328 13.25 9.99795
1 11.3281 11.3159 11.6113
2 11.2828 13.2343 11.917
1 13.2464 13.3603 12.3122
1 11.3222 13.1347 13.8893
2 13.2549 13.2603 14.271
1 13.132 11.3219 14.6527
1 13.3638 13.2404 16.2254
2 13.236 11.2799 16.6289
1 11.3197 11.3195 16.9253
1 13.2491 11.3296 18.5508
2 11.3265 11.3256 18.9199
1 11.3245 13.2406 19.3255
1 11.3254 11.3236 20.8804
2 11.329 13.2439 21.2705
1 13.2469 13.2461 21.6543
1 11.325 13.2452 23.2169
2 13.2448 13.2465 23.5981
1 13.2463 11.3232 23.9836
1 13.2499 13.2447 25.5444
2 13.2437 11.3519 25.9137
1 11.3273 11.3166 26.324
1 13.2465 11.2036 27.8931
2 11.3259 15.1381 0.294054
1 11.3274 17.0898 0.597379
1 11.324 15.1644 2.22419
2 11.324 17.0633 2.57782
1 13.2386 17.0973 2.99771
1 11.3266 17.2101 4.63962
2 13.3172 17.0501 4.9239
1 13.248 15.1625 5.3366
1 13.1153 17.084 6.88818
2 13.245 15.1686 7.29121
1 11.3181 15.2784 7.64939
1 13.2401 15.1649 9.27738
2 11.2926 15.1354 9.60612
1 11.3284 17.0833 9.90518
1 11.4441 15.1803 11.5813
2 11.2813 17.1195 11.787
1 13.1564 16.9642 12.3937
2 13.4212 17.1195 14.3097
1 13.2033 15.2037 14.5881
1 13.0972 17.0945 16.2082
2 13.2452 15.1661 16.5886
1 11.3206 15.2853 16.9763
1 13.246 15.1684 18.5389
2 11.3267 15.1353 18.9566
1 11.3247 17.0882 19.2546
1 11.3258 15.1685 20.8863
2 11.3249 17.0886 21.2679
1 13.2466 17.0952 21.6551
1 11.3194 17.0855 23.2776
2 13.2366 17.0462 23.5797
1 13.2363 15.1647 23.9924
1 13.1307 17.0906 25.5564
2 13.2853 15.1289 25.9351
1 11.3248 15.2879 26.3073
1 13.2432 15.1754 27.8768
2 11.3277 19.0335 0.314003
1 11.2992 20.9314 0.668558
1 11.2808 19.0365 2.30695
2 11.4721 20.9328 2.52578
1 13.257 20.9323 3.01516
1 11.2324 20.9372 4.51213
2 13.3067 20.9329 4.9305
1 13.1243 19.0168 5.31954
1 13.358 20.9287 6.96373
2 13.2838 18.969 7.2744
1 11.3217 18.8996 7.58057
1 13.232 19.1338 9.22513
2 11.2831 19.0121 9.62277
1 11.4379 21.0173 10.065
1 11.3294 18.9874 11.5594
2 11.2968 20.7902 11.9913
1 13.2178 20.9758 12.2433
1 11.3245 20.9517 13.8774
2 13.2483 20.9205 14.2526
1 13.195 18.9859 14.6519
1 13.2113 20.9576 16.2212
2 13.2872 19.0575 16.6043
1 11.324 18.9 16.9751
1 13.243 19.0028 18.5465
2 11.3235 19.039 18.9565
1 11.3161 20.9412 19.315
1 11.3275 19.0062 20.8845
2 11.3679 20.8917 21.2685
1 13.2611 20.9288 21.6687
1 11.3056 20.9387 23.2089
2 13.1474 20.9324 23.6044
1 13.362 19.0077 23.9772
1 13.264 20.9328 25.5346
2 13.2546 19.0515 25.9575
1 11.321 18.8919 26.3134
1 13.2419 19.0041 27.882
2 11.2873 22.8199 0.292386
1 11.4462 24.7744 0.648374
1 11.2882 22.8323 2.30484
2 11.2988 24.8038 2.61648
1 13.2672 24.8095 2.91802
1 11.311 24.6531 4.66481
2 13.2796 24.8131 4.86998
1 13.1328 22.8568 5.32705
1 13.267 24.7791 6.9189
2 13.2158 22.836 7.27694
1 11.2708 23.0132 7.54686
1 13.2354 22.7407 9.23051
2 11.2882 22.8593 9.48601
1 11.3193 24.7022 10.0009
2 11.325 24.918 11.9505
1 13.2177 24.7355 12.316
1 11.3249 24.7514 13.8703
2 13.2493 24.7805 14.2874
1 13.2226 22.8529 14.6646
1 13.2023 24.746 16.2951
2 13.3912 22.8276 16.5534
1 13.1646 22.9785 18.4821
2 11.317 22.8153 19.0372
1 11.4313 24.7643 19.3006
1 11.2094 22.8542 20.9134
2 11.3902 24.7753 21.2872
1 13.2622 24.7687 21.5966
1 11.31 24.7797 23.2054
2 13.2051 24.8157 23.602
1 13.3656 22.8555 23.9722
1 13.2481 24.769 25.6079
2 13.2147 22.8219 25.9336
1 11.3217 22.8614 26.329
1 13.2485 22.9729 27.8956
2 15.2027 -0.199132 0.17645
1 15.1705 1.64489 0.676703
2 15.1653 1.85922 2.6193
1 17.0554 1.67984 2.98905
1 15.1605 1.69147 4.53501
2 17.0478 1.68144 4.944
1 17.0771 -0.211814 5.32545
1 17.0991 1.7242 6.88282
2 17.1297 -0.163964 7.27218
1 15.1669 -0.331033 7.64656
1 17.0877 -0.212805 9.21628
2 15.1661 -0.174381 9.62669
1 15.1667 1.72005 9.99446
1 15.1656 -0.205804 11.5566
2 15.1676 1.71681 11.9403
1 17.0905 1.71002 12.3285
1 15.1619 1.71932 13.8852
2 17.0491 1.75579 14.2716
1 17.2112 -0.206207 14.6454
1 17.0935 1.7133 16.2141
2 17.0561 -0.206793 16.6232
1 15.1595 -0.213 16.9953
1 17.0949 -0.202182 18.554
2 15.206 -0.163911 18.936
1 15.1711 1.72208 19.3252
1 15.1611 -0.202636 20.8754
2 15.1681 1.71373 21.2865
1 17.0909 1.7077 21.6549
1 15.1631 1.7222 23.28
2 17.0779 1.76222 23.5794
1 17.2098 -0.197754 23.9807
1 16.9734 1.71701 25.5575
2 17.0981 -0.24723 25.9578
1 15.1612 -0.0923988 26.2943
1 17.0808 -0.196326 27.8954
2 15.1582 3.65698 0.298252
1 15.1786 5.56154 0.668986
1 15.1636 3.65818 2.22071
2 15.1246 5.52702 2.61372
1 17.087 5.67551 2.98382
1 15.164 5.57297 4.55634
2 17.0501 5.56536 4.96194
1 17.1996 3.63523 5.32152
1 17.0545 5.58061 6.89642
2 17.0573 3.64125 7.29673
1 15.1627 3.64259 7.66311
1 17.0897 3.63797 9.22495
2 15.165 3.63576 9.60858
1 15.1693 5.55675 9.97937
1 15.1683 3.6388 11.5532
2 15.1648 5.55665 11.9383
1 17.0824 5.55778 12.3239
1 15.1671 5.55921 13.8854
2 17.0894 5.56226 14.2715
1 17.0866 3.64384 14.6576
1 17.0894 5.56018 16.218
2 17.0891 3.63762 16.6046
1 15.1679 3.63693 16.9894
1 17.0892 3.63703 18.5515
2 15.1677 3.63938 18.9351
1 15.1773 5.56204 19.3302
1 15.167 3.634 20.8838
2 15.1337 5.51912 21.2705
1 17.1756 5.68288 21.7207
1 15.1471 5.56742 23.2051
2 16.9442 5.53336 23.647
1 17.1228 3.66195 23.9874
1 17.1112 5.55819 25.5361
2 17.1483 3.67095 25.9395
1 15.168 3.51428 26.308
1 17.0369 3.62977 27.8667
2 15.1766 7.44138 0.253851
1 15.053 9.40088 0.657138
1 15.2821 7.48354 2.23079
2 15.1581 9.44495 2.65077
1 17.0937 9.2841 2.98523
1 15.1689 9.3928 4.62382
2 17.1216 9.43625 4.94177
1 17.0552 7.48754 5.28794
1 16.9404 9.35872 6.91793
2 17.2785 7.44745 7.22106
1 16.9987 7.49091 9.12165
2 15.2099 7.42106 9.76018
1 15.0504 9.3876 9.88361
1 15.159 7.48842 11.5853
2 15.1997 9.4031 11.9519
1 17.1106 9.44725 12.3161
1 15.1742 9.39784 13.885
2 17.089 9.39782 14.2741
1 17.0887 7.48131 14.6592
1 17.0925 9.39627 16.2172
2 17.089 7.47912 16.622
1 15.1669 7.48074 16.9859
1 17.0894 7.48045 18.6177
2 15.1369 7.4804 18.9148
1 15.1735 9.3953 19.3294
1 15.2877 7.47571 20.8954
2 15.1254 9.44017 21.269
1 17.0877 9.28543 21.6398
1 15.1655 9.39421 23.2096
2 17.0577 9.42967 23.6016
1 17.1381 7.45336 23.9167
1 17.2062 9.40062 25.5597
2 17.0451 7.44555 25.9356
1 15.1601 7.48425 26.3201
1 17.0977 7.48055 27.9387
2 15.2088 11.3621 0.276264
1 15.1717 13.2519 0.663551
1 15.158 11.3269 2.21794
2 15.1664 13.2462 2.6265
1 17.0884 13.2461 2.99045
1 15.1669 13.2463 4.62094
2 17.118 13.2435 4.91946
1 17.0737 11.3243 5.34385
1 16.9698 13.2416 6.9049
2 17.1762 11.3119 7.2738
1 15.1708 11.3425 7.62859
1 17.1279 11.3734 9.24239
2 15.2094 11.3594 9.65432
1 15.1643 13.2527 9.93649
1 15.1687 11.3118 11.5521
2 15.2122 13.2054 11.9437
1 17.1368 13.1921 12.2863
1 15.1714 13.261 13.9404
2 17.1132 13.2504 14.2482
1 17.0875 11.3269 14.6547
1 16.9695 13.2463 16.2299
2 17.1273 11.2843 16.601
1 15.1712 11.4425 16.982
1 17.0867 11.3314 18.5456
2 15.1709 11.2941 18.9583
1 15.1681 13.2469 19.2559
1 15.1645 11.3297 20.8859
2 15.1687 13.2465 21.2527
1 17.0922 13.2496 21.6523
1 15.1677 13.2452 23.2144
2 17.0857 13.2443 23.5998
1 17.0954 11.3251 23.9946
1 17.0814 13.2455 25.5475
2 17.0492 11.3618 25.9358
1 15.1596 11.3217 26.325
1 17.0966 11.3219 27.8755
2 15.1667 15.1715 0.277561
1 15.1672 17.0898 0.662393
1 15.1666 15.1676 2.22366
2 15.167 17.091 2.60566
1 17.085 17.0858 2.9975
1 15.1798 17.0876 4.55182
2 17.0901 17.0936 4.95753
1 17.0833 15.165 5.32548
1 17.0941 17.0796 6.95144
2 17.1312 15.1771 7.24508
1 15.1763 15.0485 7.65131