1662
Atoms. Timestep: 1382
2 26.9507 -0.464203 -0.0957712
1 26.9433 1.48881 0.31382
1 26.961 -0.447129 1.8886
2 26.964 1.49682 2.29636
1 1.48474 1.48393 2.7109
1 26.9677 1.49901 4.27794
2 1.49255 1.48539 4.68402
1 1.49765 -0.471357 5.10335
1 1.50474 1.48869 6.66496
2 1.57894 -0.47355 7.08013
1 -0.29506 26.9623 7.56081
1 1.53572 26.9365 9.10006
2 26.963 26.8715 9.48297
1 -0.422295 1.28695 9.95442
1 26.9531 26.8759 11.5003
2 -0.459086 1.46358 11.8758
1 1.52777 1.47685 12.2506
1 -0.295383 1.47514 13.8031
2 1.57676 1.57395 14.2728
1 1.52417 -0.311787 14.7376
1 1.51547 1.52627 16.2897
2 1.58697 -0.461053 16.6654
1 -0.304141 26.9648 17.1006
1 1.51008 -0.46498 18.6566
2 -0.446871 -0.286985 18.9568
1 26.9659 1.49199 19.2898
1 -0.284199 26.4001 20.6524
1 1.68682 1.43478 21.6455
1 26.7726 1.44479 23.6657
1 1.50266 26.7558 24.3625
1 1.45321 1.29979 26.0834
2 1.40155 26.8771 26.3074
1 26.9357 -0.470869 26.6701
1 1.44431 26.9526 28.2901
2 26.8479 3.44912 -0.065724
1 26.9549 5.40973 0.322893
1 26.9424 3.44878 1.90654
2 26.9664 5.40769 2.30208
1 1.48231 5.40042 2.71562
1 26.9645 5.41641 4.28513
2 1.49183 5.40653 4.68584
1 1.51387 3.4452 5.07784
1 1.50811 5.40392 6.66381
2 1.51307 3.44735 7.05343
1 -0.447894 3.48905 7.13864
1 1.66509 3.44386 8.99201
1 26.9225 5.61418 9.95168
1 -0.469242 3.44888 11.78
2 26.9669 5.42038 11.891
1 1.47798 5.40838 12.2834
1 -0.476086 5.45153 13.8615
2 1.48303 5.41965 14.2709
1 1.51424 3.47765 14.6713
1 1.49962 5.4196 16.2634
2 1.50172 3.46651 16.6503
1 -0.468711 3.47306 16.7529
1 1.67243 3.44561 18.5809
1 -0.452655 5.62984 19.5267
1 -0.471278 3.65547 21.3068
2 -0.456487 5.53172 21.4782
1 1.51028 5.42661 21.8557
1 -0.446018 5.4283 23.4524
2 1.51498 5.49286 23.8217
1 1.48178 3.62451 24.0053
1 1.5086 5.57175 25.7638
1 26.7563 3.4189 26.7328
1 1.27837 3.45053 28.5044
2 -0.460132 7.36257 -0.0668397
1 26.9634 9.32161 0.314251
1 -0.451681 7.36532 1.90698
2 -0.475174 9.32243 2.29562
1 1.48212 9.32521 2.71107
1 26.9632 9.31057 4.28342
2 1.48174 9.31102 4.68906
1 1.48405 7.3624 5.10664
1 1.49035 9.31912 6.67521
2 1.53087 7.36205 7.08974
1 -0.387331 7.37719 7.53008
1 1.51988 7.35939 9.08838
2 -0.414001 7.4604 9.47572
1 26.9134 9.33352 9.88188
1 26.936 7.41634 11.4744
2 26.9435 9.34173 11.8767
1 1.43235 9.32166 12.259
1 26.9307 9.33701 13.8597
2 1.38409 9.3191 14.2794
1 1.47087 7.36456 14.6925
1 1.4655 9.32562 16.257
2 1.49783 7.37187 16.6725
1 -0.441659 7.39285 17.0849
1 1.52386 7.41464 18.6637
2 -0.453528 7.4867 19.058
1 -0.454602 9.37574 19.4544
1 -0.443629 7.45145 21.0807
2 -0.456951 9.37188 21.4406
1 1.52956 9.39954 21.8166
1 -0.296177 9.35366 23.3736
2 1.5552 9.38145 23.8509
1 1.54087 7.399 24.1862
1 1.50353 9.20735 25.7703
2 1.58042 7.38099 26.272
1 -0.301775 7.37173 26.7474
1 1.53374 7.36829 28.2692
2 26.8576 11.2882 -0.0753735
1 26.951 13.2414 0.313072
1 26.9525 11.2804 1.89888
2 -0.470082 13.2335 2.29516
1 1.48304 13.2329 2.70077
1 -0.470233 13.2273 4.2792
2 1.48414 13.1529 4.68044
1 1.46169 11.254 5.08642
1 1.47155 13.1968 6.70163
2 1.46593 11.2686 7.06774
1 26.9049 11.2584 7.47142
1 1.2952 11.2799 8.9986
2 26.869 11.2919 9.48664
1 26.9506 13.2482 9.89864
1 26.9585 11.2883 11.461
2 -0.437817 13.2521 11.8794
1 1.47752 13.2466 12.2755
1 -0.447678 13.243 13.8848
2 1.48222 13.2333 14.2687
1 1.44677 11.2755 14.6682
1 1.48346 13.2125 16.257
2 1.45916 11.2759 16.634
1 26.9542 11.285 17.0631
1 1.49726 11.2769 18.6056
2 26.966 11.2823 19.0357
1 -0.406356 13.1872 19.4567
1 -0.457241 11.3174 21.0532
2 -0.0276775 13.1365 21.3901
1 1.78345 13.2019 22.0657
1 26.7541 13.2424 23.2117
2 1.09955 13.2548 23.8903
1 1.51318 11.3717 23.946
1 1.41771 13.4205 25.7453
1 26.7716 11.3142 26.7202
1 1.29121 11.2885 28.4827
2 26.9549 15.1888 -0.101438
1 26.9575 17.1201 0.2651
1 26.9675 15.175 1.88521
2 26.9643 17.0713 2.27413
1 1.49739 17.149 2.40675
1 26.8034 17.106 4.20385
1 1.49323 15.0283 5.17241
1 1.41772 17.1822 7.00029
2 1.46277 15.1977 7.10626
1 26.9594 15.195 7.49887
1 1.46036 15.2191 9.08757
2 26.9556 15.2187 9.47699
1 26.9037 17.2187 9.89559
1 26.9637 15.2161 11.4448
2 26.9224 17.162 11.8778
1 1.39749 17.1633 12.2304
1 26.921 17.1483 13.8651
2 1.37093 17.143 14.267
1 1.45531 15.1584 14.6675
1 1.46783 16.975 16.2042
2 1.47596 15.1014 16.6895
1 26.9602 15.1565 17.0752
1 1.49814 15.1534 18.6812
2 26.9571 15.1677 19.0493
1 26.9669 17.1097 19.1543
1 26.9455 14.9327 21.002
1 1.63273 17.1854 21.9352
1 -0.463152 17.151 23.7778
2 1.4902 17.1574 23.8682
1 1.474 15.1812 24.1942
1 1.50335 17.1723 25.8308
2 1.40567 15.2887 26.2532
1 26.9468 15.201 26.6557
1 1.44202 15.2248 28.2607
2 -0.450227 19.1142 28.6433
1 -0.468442 21.0894 -0.0180796
1 -0.453438 18.9435 1.83001
1 1.65265 21.1113 2.73296
1 -0.340126 21.1252 4.52019
2 1.52038 21.1673 4.70615
1 1.42829 19.2941 5.2029
1 1.45271 21.1181 6.73034
2 1.39853 19.1397 7.12339
1 26.7626 19.1157 7.71551
1 1.55253 19.1517 9.08645
2 -0.21856 19.131 9.58386
1 26.9319 21.0471 9.90964
1 26.9478 19.1342 11.4743
2 26.9479 21.1056 11.8926
1 1.47548 21.1056 12.2693
1 26.9581 21.0855 13.8606
2 1.48845 21.037 14.2531
1 1.47097 19.1135 14.3694
1 1.47478 21.2212 16.2226
1 26.7909 19.0896 17.0979
1 1.49868 19.0973 18.9715
2 26.9606 19.0444 19.0365
1 26.9597 20.9539 19.1526
1 26.9351 19.0859 20.9286
1 1.64832 21.109 21.9397
1 -0.470041 21.0941 23.742
2 1.50399 21.0761 23.8769
1 1.49614 19.1325 24.2455
1 1.5265 21.0652 25.8573
2 1.56388 19.1217 26.2244
1 -0.29803 19.1086 26.705
1 1.51798 19.1204 28.2583
2 -0.465182 23.0625 -0.0989452
1 26.9607 25.0522 0.287628
1 -0.450954 23.2319 1.83217
2 -0.47497 25.1013 2.30509
1 1.48788 25.0204 2.71568
1 -0.472267 25.0353 4.28108
2 1.48973 25.0206 4.69237
1 1.50274 23.0724 5.10643
1 1.50602 25.0138 6.67467
2 1.49475 23.0571 7.09958
1 -0.450002 23.042 7.49694
1 1.48375 23.0448 9.09008
2 26.9654 23.0189 9.47371
1 -0.474787 24.977 9.88185
1 26.954 23.0607 11.4488
2 -0.185766 24.9769 11.7753
1 1.63143 25.0074 12.0179
1 26.333 24.9564 13.3917
1 1.45122 22.94 14.696
1 1.47881 25.0345 16.5511
2 1.47318 23.1204 16.6608
1 26.9541 23.0445 17.0586
1 1.41505 23.0754 18.648
2 -0.476096 22.7711 18.9492
1 -0.35791 23.5909 20.6222
2 26.6573 24.9981 21.6745
1 -0.270383 24.9792 23.4083
2 1.51489 24.8873 24.1008
1 1.51736 23.0032 24.3041
1 1.51633 24.9384 25.9779
2 1.5739 22.9929 26.292
1 -0.304478 23.0501 26.7159
1 1.5214 23.03 28.2856
2 3.44848 26.8794 -0.0798031
1 3.43658 1.30426 0.386477
1 3.46068 26.9295 1.93868
2 3.46053 1.47364 2.31654
1 5.47403 1.52968 2.72077
1 3.46132 1.46181 4.27992
2 5.41784 1.49607 4.69796
1 5.42962 -0.437328 5.09273
1 5.41179 1.48662 6.67494
2 5.42371 -0.450273 7.09873
1 3.47224 -0.461519 7.50248
1 5.40746 -0.465118 9.0805
2 3.46375 26.963 9.49205
1 3.46949 1.48145 9.89502
1 3.49244 26.9672 11.4724
2 3.4615 1.48122 11.8678
1 5.41409 1.49093 12.2854
1 3.4704 1.50693 13.8496
2 5.41488 1.52857 14.2779
1 5.41386 -0.363573 14.73
1 5.41315 1.51867 16.2982
2 5.40831 -0.417666 16.6814
1 3.49015 26.9489 17.0719
1 5.40145 26.943 18.6489
2 3.43539 26.9643 19.0641
1 3.47988 1.46017 19.469
1 3.44875 26.9191 21.058
2 3.5547 1.47468 21.4403
1 5.47838 1.45889 21.8164
1 3.72846 1.61535 23.3922
2 5.52567 1.16538 23.7381
1 5.36341 26.7868 23.933
1 5.44274 1.65845 25.5068
1 3.29244 26.9509 26.7414
1 5.44681 -0.463397 28.5522
1 3.44877 5.53031 0.395636
1 3.44767 3.43543 2.21238
2 3.46058 5.39861 2.32809
1 5.45865 5.36017 2.70994
1 3.46057 5.42084 4.28859
2 5.4036 5.3951 4.69697
1 5.43412 3.4369 5.09654
1 5.41192 5.4025 6.66683
2 5.41568 3.44171 7.07601
1 3.49443 3.44263 7.46639
1 5.43186 3.44363 9.06708
2 3.53702 3.43269 9.48878
1 3.46152 5.37535 9.898
1 3.4608 3.43794 11.4701
2 3.44084 5.39062 11.8822
1 5.40056 5.38422 12.2817
1 3.44096 5.39346 13.8541
2 5.39384 5.31848 14.262
1 5.41139 3.43058 14.6857
1 5.40221 5.36944 16.2875
2 5.41866 3.44938 16.6736
1 3.49203 3.44344 17.0491
1 5.43226 3.43291 18.6528
2 3.5409 3.41971 19.064
1 3.46074 5.36207 19.4412
1 3.46816 3.42776 21.0399
2 3.44846 5.34111 21.4422
1 5.40439 5.37266 21.8616
1 3.50744 5.35211 23.4466
2 5.39518 5.68762 23.7519
1 5.41108 5.54354 25.6475
1 3.46562 3.52358 26.4587
1 5.61272 3.44194 28.5164
2 3.47216 7.35467 28.6386
1 3.46116 9.18342 0.395656
1 3.47355 7.35497 1.95416
2 3.4464 9.31752 2.33233
1 5.40077 9.33721 2.71178
1 3.44355 9.30369 4.3013
2 5.3982 9.32256 4.6928
1 5.41928 7.36188 5.09668
1 5.42146 9.32091 6.674
2 5.41166 7.3611 7.08082
1 3.45933 7.35011 7.49311
1 5.40877 7.34865 9.06453
2 3.45985 7.27166 9.47804
1 3.41713 9.14686 9.94077
1 3.43918 7.31836 11.4924
2 3.41386 9.31194 11.8743
1 5.37211 9.31542 11.9644
1 3.25472 9.29299 13.8096
1 5.39401 7.186 14.7563
1 5.40275 9.3173 16.5881
2 5.402 7.35036 16.6929
1 3.44776 7.38192 17.0995
1 5.38354 7.37051 18.6804
2 3.45283 7.30018 19.0624
1 3.43435 9.5666 19.701
1 3.45274 7.25083 21.0146
2 3.35217 9.02078 21.5323
1 5.1702 9.42216 21.8998
1 3.4191 9.32121 23.4498
2 5.40395 9.3259 23.839
1 5.40141 7.48215 24.2118
1 5.42466 9.30589 25.9
2 5.42236 7.41073 26.2495
1 3.48732 7.36094 26.6695
1 5.44069 7.32184 28.2429
1 3.43938 13.4371 0.389212
1 3.44394 11.2891 2.20829
2 3.44595 13.264 2.31774
1 5.40332 13.2421 2.69572
1 3.4377 13.2284 4.28459
2 5.41001 13.1809 4.67474
1 5.42007 11.2712 5.08151
1 5.37696 13.1939 6.68464
2 5.4181 11.2724 7.06287
1 3.44189 11.2703 7.18
1 5.57043 11.2607 8.99489
1 3.42701 13.4207 9.95163
1 3.42455 11.2828 11.7829
2 3.42341 13.2587 11.8847
1 5.34928 13.2344 12.2531
1 3.41088 13.26 13.8686
2 5.30709 13.249 14.2546
1 5.40193 11.4154 14.7432
1 5.39466 13.2396 16.3177
2 5.42743 11.2843 16.6651
1 3.44003 11.2622 16.9581
1 5.39064 11.2979 18.6284
2 3.44409 11.2687 18.8222
1 3.39527 13.0275 19.5692
2 3.46125 13.5589 21.3257
1 5.23385 13.1799 21.6507
1 5.32913 11.1479 24.2964
1 5.42022 13.0849 26.0639
2 5.49954 11.2103 26.2498
1 3.61415 11.2503 26.4289
1 5.61244 11.2712 28.1933
2 3.44161 15.3028 -0.0787436
1 3.4525 17.1932 0.303957
1 3.44738 15.2597 1.95161
2 3.46118 17.1934 2.28732
1 5.47534 17.1682 2.66547
1 3.70533 17.2733 4.22391
2 5.5184 16.8592 4.58409
1 5.40203 15.0632 5.06903
1 5.41788 17.0119 6.48425
2 5.30664 15.1161 7.0713
1 3.40616 15.2207 7.48511
1 5.33601 15.2281 9.07756
2 3.41212 15.3006 9.47646
1 3.42131 17.2005 9.88025
1 3.41597 15.2476 11.4872
2 3.32452 17.1805 11.8546
1 5.20622 17.1737 12.0474
1 3.22298 17.1509 13.7986
1 5.38512 15.074 14.7743
1 5.41974 17.1278 16.6301
2 5.40373 15.1792 16.7164
1 3.43647 15.1753 17.0991
1 5.38661 15.1706 18.6973
2 3.44295 15.2741 19.0301
1 3.45977 17.2202 19.4179
1 3.44614 15.3372 20.9712
2 3.47782 17.2323 21.434
1 5.33082 17.208 21.901
1 3.43983 17.1915 23.5066
2 5.35939 17.2764 23.8423
1 5.36865 15.4073 23.9801
1 5.51033 17.3907 25.7743
1 3.27653 15.2328 26.7321
1 5.42406 15.2557 28.5513
2 3.41433 19.1374 -0.0956093
1 3.43899 21.089 0.301463
1 3.46486 19.1324 1.89279
2 3.5323 21.0899 2.27523
1 5.45902 21.0567 2.37507
1 3.3922 21.0358 4.2534
1 5.40719 21.2637 6.84926
1 3.30937 19.1388 7.51683
1 5.409 19.1399 9.38213
2 3.47035 19.1436 9.49038
1 3.45074 21.0957 9.88591
1 3.42348 19.1483 11.4958
2 3.43399 21.1022 11.8609
1 5.40141 21.1071 12.2813
1 3.47842 21.1327 13.8463
2 5.39548 20.8896 14.1747
1 5.41855 19.1675 14.8148
1 5.38934 21.395 16.0067
2 5.49725 19.0553 16.7084
1 3.64632 19.1984 17.1393
1 5.4551 19.1513 18.6904
2 3.45704 19.1575 19.072
1 3.41546 21.1069 19.4813
1 3.47614 19.1512 21.0492
2 3.52694 21.1064 21.4526
1 5.43732 21.0853 21.8606
1 3.49246 21.0701 23.4615
2 5.42465 21.0878 23.8425
1 5.46845 19.1714 24.2377
1 5.43751 21.0705 25.8436
2 5.36549 19.2163 26.2624
1 3.44282 19.1335 26.6301
1 5.31878 19.1522 28.2065
2 3.44492 23.0396 -0.0756684
1 3.45677 24.9862 0.32325
1 3.46668 23.0482 1.90402
2 3.45061 24.9982 2.30844
1 5.42374 24.9991 2.71409
1 3.44932 25.0288 4.278
2 5.42364 25.1232 4.67429
1 5.4356 23.2725 5.14583
1 5.40426 25.082 6.69647
2 5.39653 23.146 7.0964
1 3.44168 23.0514 7.50004
1 5.40053 23.0597 9.07151
2 3.44948 23.0486 9.47765
1 3.48352 25.0029 9.87222
1 3.47404 23.0389 11.4521
2 3.52999 24.9906 11.8536
1 5.43901 25.0331 12.2654
1 3.71058 24.8904 13.8256
2 5.50719 25.3148 14.2022
1 5.4035 24.7892 16.0409
2 5.30199 23.0703 16.889
1 3.38649 23.0574 17.1072
1 5.1834 23.0645 18.75
2 3.28941 23.0559 19.1024
1 3.42004 25.0178 19.4801
1 3.38145 23.0975 21.0615
2 3.7422 25.0062 21.3635
1 5.51854 24.9649 21.878
1 3.1915 24.9622 23.1849
2 5.47016 24.9017 23.8243
1 5.38038 23.0069 24.2259
1 5.3638 24.8081 25.7619
2 5.37044 22.9505 26.2792
1 3.46855 23.0137 26.6798
1 5.38571 23.0074 28.2852
2 7.39723 26.8972 -0.0829645
1 7.38683 1.68973 0.519665
1 7.38985 26.8538 1.85382
2 7.36311 1.18716 2.36108
1 9.27163 1.5435 2.69713
1 7.42111 1.4263 4.2704
2 9.32876 1.7717 4.6001
1 9.31339 1.22533 6.42027
2 9.32355 -0.47563 7.29349
1 7.38296 -0.465262 7.54945
1 9.32 -0.472781 9.17197
2 7.34294 -0.470561 9.51898
1 7.35885 1.48014 9.89931
1 7.33261 -0.469894 11.4833
2 7.36538 1.48902 11.875
1 9.31543 1.50068 12.2885
1 7.36583 1.50207 13.8529
2 9.31806 1.4976 14.265
1 9.29734 -0.432532 14.656
1 9.31518 1.50694 16.2507
2 9.31654 -0.385319 16.6731
1 7.33691 -0.473952 17.0771
1 9.32256 -0.446453 18.6435
2 7.36338 -0.39218 19.0579
1 7.37158 1.49887 19.4581
1 7.38227 -0.431408 21.0818
2 7.39938 1.49437 21.4477
1 9.33208 1.46519 21.861
1 7.37041 1.5129 23.451
2 9.32845 1.4725 23.8375
1 9.32696 26.9125 24.2453
1 9.35334 1.29463 25.7677
2 9.41958 26.8553 26.2505
1 7.54704 26.964 26.7491
1 9.36154 -0.474172 28.2779
2 7.47346 3.44899 28.4394
1 7.38819 5.20294 0.52699
2 7.36366 5.69709 2.3756
1 9.26918 5.35957 2.70776
1 7.35597 5.42023 4.27203
2 9.32231 5.42811 4.69459
1 9.3027 3.53863 5.13396
1 9.30834 5.43004 6.70006
2 9.22434 3.50124 7.07722
1 7.35476 3.41391 7.48102
1 9.26806 3.41962 9.07161
2 7.35837 3.43965 9.48654
1 7.362 5.40236 9.89095
1 7.35346 3.44149 11.4603
2 7.35305 5.39874 11.8676
1 9.28081 5.38819 12.271
1 7.33906 5.39027 13.8536
2 9.2445 5.3988 14.278
1 9.31729 3.45278 14.6754
1 9.30311 5.40054 16.2606
2 9.31519 3.45285 16.6569
1 7.36898 3.44282 17.0649
1 9.30259 3.43464 18.6437
2 7.36559 3.43951 19.0511
1 7.35485 5.36322 19.4432
1 7.36949 3.42025 21.0436
2 7.35423 5.30784 21.4512
1 9.26938 5.41348 21.8413
1 7.29075 5.34697 23.4534
2 9.21845 5.41083 23.8438
1 9.31859 3.44103 23.9519
1 9.32234 5.59672 25.7738
1 7.41211 3.46101 26.6076
1 9.3654 3.44425 28.5453
2 7.37549 7.41019 28.6429
1 7.38208 9.35658 0.276181
1 7.35706 7.4689 1.84506
2 7.33677 9.37927 2.27827
1 9.24818 9.35701 2.69668
1 7.34308 9.35483 4.28997
2 9.21111 9.27314 4.70131
1 9.29325 7.33115 5.06079
1 9.30035 9.22286 6.64149
2 9.32077 7.32765 7.08608
1 7.35765 7.35449 7.5029
1 9.31761 7.35355 9.06815
2 7.3656 7.35811 9.48185
1 7.38226 9.31221 9.86664
1 7.35069 7.35849 11.4614
2 7.30144 9.30759 11.8616
1 9.21113 9.29926 12.3137
1 7.49861 9.29667 13.8273
2 9.4269 9.22427 14.2737
1 9.31772 7.33678 14.6897
1 9.32016 9.27586 16.3039
2 9.31475 7.34982 16.6767
1 7.34736 7.33441 17.0681
1 9.28712 7.35788 18.6607
2 7.34347 7.35294 19.0467
1 7.36523 9.33027 19.1659
1 7.32602 7.18682 20.9874
1 9.44862 9.30329 21.8834
1 7.36761 9.37683 23.7412
2 9.30302 9.36542 23.8463
1 9.29988 7.41607 24.2329
1 9.33827 9.36209 25.8322
2 9.33003 7.46653 26.2513
1 7.36864 7.34851 26.6816
1 9.31612 7.34663 28.2289
2 7.46019 11.3038 -0.0988086
1 7.36676 13.2656 0.295849
1 7.36719 11.3031 1.87646
2 7.34781 13.2584 2.25547
1 9.32295 13.2338 2.58673
1 7.38378 13.2314 4.22855
2 9.31564 13.2414 4.46194
1 9.29566 11.5339 5.33971
2 9.24321 10.9944 7.17639
1 7.40934 11.3239 7.47388
1 9.30344 11.2439 9.10705
2 7.42645 11.2784 9.50989
1 7.33788 13.2016 9.85732
1 7.3543 11.2524 11.4805
2 7.34716 13.1588 11.8592
1 9.31045 13.239 11.9746
1 7.18511 13.2334 13.7868
1 9.36684 11.0911 14.7543
1 9.3306 13.2399 16.5766
2 9.33476 11.2638 16.6904
1 7.37794 11.2989 17.0657
1 9.33755 11.2748 18.6696
2 7.36237 11.3036 19.0409
1 7.35734 13.2968 19.461
1 7.36217 11.479 20.9769
2 7.23685 13.337 21.4639
1 9.23053 13.2713 22.0549
1 7.32646 13.2717 23.3964
2 9.08946 13.2675 23.956
1 9.38137 11.366 24.2466
1 9.34783 13.2468 25.8483
2 9.36153 11.2933 26.2415
1 7.43507 11.3019 26.6069
1 9.32791 11.2928 28.2319
2 7.3849 15.2349 -0.0841346
1 7.42181 17.226 0.30977
1 7.37787 15.2235 1.89393
2 7.40101 17.1781 2.28707
1 9.32059 17.1615 2.70196
1 7.36854 17.1855 4.28907
2 9.31801 17.1381 4.6868
1 9.30345 15.1124 4.88589
1 9.33505 17.327 6.60443
1 7.17684 15.1027 7.51974
1 9.11901 15.1711 9.30041
2 7.25081 15.1995 9.48175
1 7.34285 17.1726 9.56063
1 7.31009 15.0348 11.4154
1 9.53413 17.1882 12.3382
1 7.55555 17.1913 14.0895
2 9.43886 17.2433 14.28
1 9.35469 15.3696 14.7554
1 9.34374 17.1825 16.2972
2 9.33473 15.212 16.6901
1 7.36853 15.2036 17.084
1 9.33385 15.2293 18.6667
2 7.37561 15.2013 19.0492
1 7.36002 17.136 19.4712
1 7.37262 15.246 21.062
2 7.09519 17.1518 21.375
1 7.62474 17.1307 23.2106
2 9.34149 17.1337 24.0232
1 9.38349 15.1725 24.2919
1 9.34294 17.1863 25.8886
2 9.41339 15.198 26.2701
1 7.5446 15.2012 26.7143
1 9.34293 15.2176 28.2643
2 7.08743 19.1381 -0.00555115
1 7.46595 21.0587 0.285121
1 7.3796 19.1346 1.87887
2 7.41551 21.0865 2.27387
1 9.3655 21.0894 2.68305
1 7.51606 21.0198 4.21251
2 9.40344 21.0462 4.69552
1 9.35083 19.1489 5.07314
1 9.32792 21.0783 6.69855
2 9.39799 19.1925 7.08376
1 7.51726 19.1707 7.53204
1 9.32714 19.1435 9.09668
2 7.36688 19.1406 9.47834
1 7.36549 21.1367 9.85431
1 7.37583 19.3159 11.4192
2 7.37132 21.1881 11.8691
1 9.3143 21.0746 12.2918
1 7.31079 21.1579 13.8556
2 9.3142 21.0883 14.255
1 9.32141 19.1284 14.6538
1 9.3332 20.9253 16.1937
2 9.33818 19.0592 16.6802
1 7.37891 19.1402 17.0736
1 9.33291 19.1066 18.652
2 7.39081 19.0392 19.0538
1 7.37008 20.8985 19.5629
1 7.43468 19.0273 21.0757
2 7.38185 21.0576 21.4889
1 9.32924 21.089 21.8554
1 7.38666 21.0827 23.4685
2 9.33912 21.0903 23.8109
1 9.32569 19.1142 24.2143
1 9.36793 21.1177 25.7889
2 9.3386 19.1669 26.0822
1 7.62684 19.1658 26.9134
2 7.32768 23.0094 -0.100568
1 7.40616 24.9359 0.264586
1 7.40765 23.0309 1.86277
2 7.37255 24.9592 2.26976
1 9.33806 24.9812 2.69716
1 7.4271 25.0681 4.25959
2 9.33145 24.7205 4.5907
1 9.3072 22.9518 5.12615
1 9.31308 25.2638 6.41946
2 9.22417 22.9985 7.07692
1 7.34934 23.0893 7.4805
1 9.27418 23.0825 9.07319
2 7.34627 23.0671 9.47134
1 7.34776 25.0218 9.87547
1 7.35303 23.0746 11.4518
2 7.30158 25.0086 11.8407
1 9.14787 25.0498 12.3384
1 7.32636 24.9556 13.8911
2 9.29552 25.0098 14.2766
1 9.3223 23.0415 14.3681
1 9.29571 25.1898 16.2097
1 7.16994 23.0512 16.8749
1 9.52547 23.0431 18.8974
1 7.37431 25.1876 19.5483
1 7.3967 23.0348 21.3661
2 7.41954 25.0153 21.4883
1 9.34079 25.0066 21.8602
1 7.41789 24.9788 23.4974
2 9.35311 24.9932 23.8403
1 9.32619 23.0391 24.2527
1 9.38907 24.9294 25.8361
2 9.03995 23.0244 26.1467
1 7.27478 23.0293 26.7029
1 9.60345 23.0269 27.9705
2 11.2955 26.9612 -0.0852659
1 11.3006 1.48008 0.314932
1 11.2678 -0.471248 1.88702
2 11.2748 1.48091 2.2781
1 13.2285 1.46226 2.69294
1 11.2142 1.42657 4.25177
2 13.2231 1.44841 4.65231
1 13.2444 26.9563 5.04239
1 13.2451 1.33946 6.59316
2 13.2361 26.9651 7.12074
1 11.2664 -0.459084 7.52954
1 13.2404 -0.471136 9.0841
2 11.2969 -0.466836 9.49626
1 11.2708 1.51617 9.86022
1 11.2921 -0.299999 11.4145
2 11.268 1.56523 11.8862
1 13.2139 1.48244 12.2925
1 11.2701 1.48426 13.865
2 13.2289 1.39764 14.2725
1 13.2243 26.9453 14.6893
1 13.2396 1.44662 16.2821
2 13.2468 26.9582 16.6745
1 11.2832 -0.465464 17.0858
1 13.2436 26.9487 18.6494
2 11.2849 -0.475741 19.063
1 11.2717 1.48107 19.4824
1 11.2856 26.9659 21.0424
2 11.2829 1.477 21.4608
1 13.2411 1.45893 21.8717
1 11.2855 1.45678 23.4398
2 13.247 1.37666 23.848
1 13.2368 26.9211 24.2869
1 13.2618 1.4253 25.8634
2 13.2476 26.9348 26.2641
1 11.3097 26.9275 26.679
1 13.2449 -0.471774 28.2438
2 11.3152 3.43846 -0.0720176
1 11.2986 5.40312 0.308411
1 11.2909 3.43891 1.9069
2 11.2679 5.3944 2.2867
1 13.2368 5.38934 2.68693
1 11.2692 5.40364 4.25738
2 13.2349 5.32676 4.66369
1 13.2128 3.40032 4.76499
1 13.2436 5.47348 6.64205
1 11.0713 3.38853 7.53718
1 13.2023 3.44078 9.39912
2 11.2528 3.43884 9.48231
1 11.2522 5.36417 9.83796
1 11.2547 3.44718 11.4835
2 11.272 5.32808 11.8647
1 13.2492 5.42339 12.0087
1 11.1324 5.4603 13.8022
1 13.2077 3.27692 14.73
1 13.2261 5.49366 16.4958
2 13.2254 3.47399 16.649
1 11.2431 3.45787 17.0426
1 13.0607 3.45657 18.5807
2 11.1924 3.44181 19.0706
1 11.2167 5.40211 19.4745
1 11.2662 3.43777 21.0511
2 11.2683 5.39729 21.444
1 13.2321 5.39478 21.5343
1 11.1036 5.43033 23.3758
1 13.254 3.2512 24.333
1 13.2555 5.35782 26.192
2 13.3345 3.40752 26.2676
1 11.4596 3.42387 26.7349
1 13.2867 3.40789 28.2798
2 11.273 7.36472 28.6435
1 11.2266 9.31588 0.301265
1 11.2326 7.34725 1.88117
2 11.157 9.3188 2.27227
1 13.0233 9.29572 2.44701
1 11.0447 9.367 4.23501
1 13.2453 7.20305 5.12663
1 13.2192 9.19323 6.92458
2 13.2329 7.33611 7.10594
1 11.2811 7.32798 7.48277
1 13.2412 7.35025 9.09219
2 11.2783 7.33852 9.45869
1 11.2759 9.30222 9.53614
1 11.2763 7.18891 11.3927
1 13.4522 9.34155 12.3463
1 11.3875 9.23324 14.1609
2 13.288 9.61605 14.2071
1 13.2804 9.12745 16.0613
2 13.2406 7.38127 16.8942
1 11.2698 7.35779 17.0929
1 13.0666 7.38289 18.7448
2 11.1715 7.35423 19.1049
1 11.2962 9.29112 19.4711
1 11.3125 7.36436 21.0931
2 11.3422 9.25807 21.4509
1 13.5135 9.37044 22.1366
1 11.2136 9.38541 23.4104
2 12.9312 9.08125 23.8592
1 13.3331 7.41933 24.4248
1 13.2794 9.67541 25.5482
2 13.2512 7.26747 26.3102
1 11.3133 7.4284 26.6424
1 13.2263 7.3867 28.2467
2 11.1852 11.2863 -0.0538641
1 11.2665 13.2543 0.309722
1 11.234 11.2867 1.90225
2 11.2843 13.2565 2.27156
1 13.2012 13.2607 2.6631
1 11.2462 13.266 4.26147
2 13.2257 13.3332 4.65095
1 13.2191 11.4528 4.79626
1 13.2538 13.2951 6.53805
1 11.0485 11.4194 7.54305
1 13.26 11.2757 9.4057
2 11.2902 11.2306 9.49401
1 11.292 13.1197 9.91147
1 11.2716 11.3994 11.4677
2 11.2487 13.3103 11.8858
1 13.1758 13.2481 12.2973
1 11.4278 13.2499 13.8619
2 13.3419 13.2952 14.2681
1 13.3045 11.403 14.7052
1 13.2932 13.2836 16.2689
2 13.2646 11.3363 16.6583
1 11.3109 11.2455 17.0536
1 13.2506 11.2797 18.6089
2 11.2945 11.2753 19.0429
1 11.2995 13.2505 19.1717
1 11.362 11.1072 20.9897
1 13.2951 13.2407 22.0549
2 13.5013 13.6234 23.8465
1 13.1718 12.971 25.5287
2 13.2575 11.3128 26.4603
1 11.2802 11.2783 26.6751
1 13.0665 11.3001 28.3087
2 11.2086 15.2233 -0.082418
1 11.2487 17.2305 0.312079
1 11.277 15.2288 1.87365
2 11.2638 17.1718 2.30239
1 13.2071 17.2334 2.64317
1 11.2477 17.1483 4.28183
2 13.1536 17.1973 4.66491
1 13.215 15.2588 4.76024
1 13.2424 17.31 6.60817
1 11.2036 15.1582 7.24353
1 13.4511 15.1662 9.3457
1 11.2953 17.3334 9.94985
1 11.303 15.2341 11.7858
2 11.4 17.185 11.8855
1 13.3069 17.1481 12.2854
1 11.3706 17.1933 13.9037
2 13.2897 17.1586 14.2809
1 13.3063 15.1947 14.6854
1 13.2766 17.1581 16.2612
2 13.265 15.2142 16.6788
1 11.2967 15.2181 17.0672
1 13.2483 15.23 18.6564
2 11.2778 15.2219 19.0448
1 11.3129 17.2184 19.4472
1 11.1945 15.4538 20.9915
2 11.5908 17.2772 21.3633
1 13.3519 17.1914 21.9142
1 11.048 17.1975 23.193
2 13.2846 17.233 23.8719
1 13.1441 15.3486 24.2873
1 13.1875 17.2502 25.8772
2 13.2066 15.3184 26.2393
1 11.288 15.1841 26.6198
1 13.0619 15.1987 28.1506
2 11.5773 19.1483 0.00440568
1 11.2665 21.0675 0.362308
1 11.2753 19.1269 1.88922
2 11.2904 21.0698 2.33719
1 13.2423 21.0642 2.70117
1 11.3036 21.0742 4.294
2 13.2377 21.0926 4.68144
1 13.2193 19.1424 5.034
1 13.2254 20.9684 6.61006
2 13.2723 19.138 7.09146
1 11.2803 19.144 7.47939
1 13.0984 19.1423 9.01626
2 11.2142 19.2045 9.48177
1 11.2688 21.0892 9.86367
1 11.3074 19.1474 11.4941
2 11.2813 21.0178 11.8992
1 13.2491 21.0804 12.2962
1 11.2908 21.0769 13.868
2 13.2504 21.0818 14.272
1 13.2667 19.1224 14.6909
1 13.2692 21.0793 16.2487
2 13.2504 19.1214 16.6711
1 11.2998 19.1287 17.0762
1 13.2485 19.1231 18.661
2 11.2812 19.1448 19.0436
1 11.3037 21.0817 19.4771
1 11.2488 19.123 21.0374
2 11.2818 21.0824 21.4553
1 13.2396 21.062 21.8686
1 11.2809 21.0912 23.435
2 13.2237 21.0824 23.8398
1 13.175 19.1346 24.2783
1 13.1655 21.123 25.8367
2 13.2436 19.1828 26.2383
1 11.0564 19.1534 26.9113
1 13.3398 19.2204 28.1919
2 11.3069 23.025 0.107051
1 11.3081 24.9781 0.350567
1 11.2857 23.0451 1.98286
2 11.2987 25.0322 2.31251
1 13.2591 25.005 2.68698
1 11.2393 25.0637 4.27746
2 13.2361 25.0142 4.65795
1 13.222 23.0579 4.75637
1 13.2602 25.1405 6.59882
1 11.0767 23.0759 7.52903
1 13.2334 23.0675 9.38205
2 11.2678 23.0538 9.47581
1 11.2743 25.0133 9.56318
1 11.2492 22.8812 11.4209
1 13.3282 25.0145 12.3251
1 11.2438 25.0079 14.19
2 13.1604 24.9984 14.2953
1 13.2495 23.0414 14.6803
1 13.2688 25.0037 16.277
2 13.3555 23.0431 16.6512
1 11.5005 23.0424 17.1397
1 13.3191 23.0393 18.6796
2 11.4034 23.0459 19.0913
1 11.2964 25.0112 19.4793
1 11.3081 23.0422 21.0607
2 11.2829 25.0057 21.4579
1 13.2167 25.0022 21.8731
1 11.2851 24.9955 23.447
2 13.2225 24.9925 23.8583
1 13.2431 23.0346 24.261
1 13.2056 24.933 25.8569
2 13.5234 23.0248 26.1471
1 13.0712 23.0156 28.0229
2 15.2042 -0.432569 -0.0923233
1 15.2128 1.47819 0.310539
1 15.2095 -0.44248 1.91788
2 15.2011 1.48327 2.30342
1 17.1681 1.46826 2.68484
1 15.2013 1.47886 4.27361
2 17.1643 1.46386 4.65376
1 17.156 26.963 5.02753
1 17.1791 1.33932 6.59996
2 17.1593 26.949 7.10749
1 15.2055 -0.468691 7.52015
1 17.1745 -0.465554 9.10139
2 15.2016 -0.465106 9.4891
1 15.1661 1.47915 9.89022
1 15.1694 -0.465955 11.4619
2 15.1097 1.49073 11.8656
1 16.99 1.48986 12.3407
1 15.1629 1.48005 13.8807
2 17.1514 1.5736 14.2798
1 17.1827 -0.303014 14.7519
1 17.1563 1.53814 16.2981
2 17.1536 -0.456773 16.6903
1 15.2088 26.9569 17.0805
1 17.1614 -0.470929 18.6727
2 15.2041 26.8792 19.0565
1 15.2036 1.30833 19.5464
1 15.1877 26.9227 21.0731
2 15.2031 1.46553 21.4836
1 17.1606 1.49389 21.8723
1 15.2059 1.43836 23.4574
2 17.1596 1.47638 23.8551
1 17.1608 26.9604 24.2714
1 17.1646 1.47338 25.835
2 17.1617 26.9646 26.2491
1 15.1986 26.9426 26.6687
1 17.1634 -0.461793 28.2262
2 15.2194 3.41603 -0.10043
1 15.202 5.33156 0.27811
1 15.2113 3.40985 1.89148
2 15.2046 5.30093 2.31038
1 17.1696 5.38211 2.6957
1 15.2024 5.35951 4.28277
2 17.1672 5.34026 4.67363
1 17.1808 3.41508 4.79694
1 17.1629 5.50668 6.64803
1 15.1634 3.43423 7.6292
1 17.0401 3.44106 9.38987
2 15.1298 3.44875 9.52466
1 15.1884 5.41399 9.87879
1 15.1754 3.45005 11.5085
2 15.2215 5.40526 11.8505
1 17.2044 5.39795 12.2513
1 15.3604 5.47614 13.7897
2 17.255 5.4032 14.2626
1 17.1793 3.47515 14.6576
1 17.1739 5.39649 16.2575
2 17.1807 3.46223 16.6399
1 15.1905 3.47298 16.7552
1 17.3485 3.45714 18.5624
1 15.2449 5.40897 19.5936
1 15.2 3.42127 21.3811
2 15.1977 5.4094 21.4735
1 17.1576 5.40549 21.8098
1 15.3327 5.38476 23.4051
2 17.1588 5.4029 23.8765
1 17.1702 3.43686 24.2757
1 17.1529 5.39904 25.8436
2 17.1759 3.43608 26.2517
1 15.2363 3.42452 26.6589
1 17.1747 3.4304 28.2354
2 15.1886 7.25486 28.6308
1 15.1959 9.13738 0.037375
1 15.1965 7.153 1.8263
1 17.3698 9.28615 2.45155
1 15.2346 9.26715 4.50777
1 17.1479 7.22665 5.12898
1 17.1642 9.34665 6.98763
2 17.0829 7.42487 7.08585
1 15.1816 7.37854 7.49497
1 17.1318 7.34666 9.11338
2 15.1981 7.36417 9.4876
1 15.2285 9.33084 9.9
1 15.232 7.36733 11.4678
2 15.3185 9.3283 11.8599
1 17.1951 9.3512 12.3288
1 15.2386 9.31988 13.9002
2 17.1744 9.25473 14.2853
1 17.1988 7.32567 14.6382
1 17.1794 9.21096 16.2304
2 17.108 7.30896 16.6475
1 15.161 7.33359 16.7532
1 17.2956 7.37761 18.61
1 15.2148 9.5109 19.3783
1 15.1893 7.40046 21.3789
2 15.2208 9.3215 21.2319
1 16.9366 9.31586 22.0874
2 17.4492 9.20774 23.9387
1 17.1078 7.36862 24.277
1 17.1713 9.27403 25.8677
2 17.0604 7.34563 26.2685
1 15.1601 7.36862 26.653
1 17.1197 7.33094 28.2644
1 15.1795 13.3137 0.422963
1 15.1787 11.4422 2.16633
2 15.1093 13.3172 2.31927
1 16.9996 13.2518 2.75045
1 15.1682 13.2476 4.33478
2 17.159 13.2302 4.66701
1 17.1647 11.4072 5.15906
1 17.2001 13.2264 6.73071
2 17.2615 11.2929 7.10398
1 15.3844 11.292 7.5723
1 17.2245 11.2942 9.12884
2 15.2394 11.2689 9.49683
1 15.2154 13.2058 9.87704
1 15.2921 11.3212 11.4896
2 14.9335 13.2214 11.757
1 15.4708 13.2412 13.5831
2 17.2531 13.2431 14.2264
1 17.1896 11.5186 14.9494
2 17.1622 10.9772 16.7726
1 15.2452 11.3409 17.0512
1 17.1625 11.3099 18.6481
2 15.1949 11.4063 19.0222
1 15.1776 13.2796 19.4621
1 15.1977 11.2991 21.0147
2 15.2552 13.2194 21.4335
1 17.1831 13.256 21.5313
1 15.1919 13.1431 23.3795
1 17.0883 11.0267 24.31
1 17.1736 13.2433 26.1524
2 17.1596 11.2798 26.2445
1 15.1937 11.3168 26.3616
1 17.3415 11.2524 28.1752
1 15.1644 17.1888 0.407028
1 15.1847 15.233 2.26511
2 15.1874 17.1432 2.30978
1 17.1409 17.2435 2.38691
1 15.043 17.2736 4.2136
1 17.176 15.055 5.14511
1 17.1919 17.0325 6.97406
2 17.2778 15.1263 7.10163
1 15.4071 15.1567 7.55956
1 17.2479 15.1588 9.12735
2 15.3325 15.1125 9.49505
1 15.2462 16.9808 9.98448
1 15.3029 15.1013 11.5052
2 15.2419 17.1375 11.9069
1 17.177 17.1412 12.3159
1 15.2439 17.118 13.8931
2 17.1736 17.2083 14.2767
1 17.1919 14.9642 14.9571
1 17.1654 17.2702 16.225
2 17.1682 15.5105 16.7806
1 15.2599 15.167 17.0926
1 17.1654 15.2153 18.6647
2 15.198 15.2057 19.0839
1 15.2178 17.1549 19.4773
1 15.1845 15.191 21.0785
2 15.2461 17.167 21.4658
1 17.1499 17.1749 21.8716
1 15.2296 17.1824 23.4841
2 17.1687 17.2605 23.8642
1 17.1806 15.3872 24.3221
1 17.1425 17.2127 25.8879
2 17.1619 15.2111 26.2468
1 15.1449 15.1598 26.29
1 17.3469 15.218 28.1682
2 15.1576 18.9103 28.5296
1 15.1814 19.3931 1.63788
2 15.1713 21.0982 2.44863
1 17.1338 21.1225 2.61568
1 15.2139 21.1291 4.31444
2 17.1752 21.2292 4.47496
1 17.208 19.6918 5.51136
2 17.1664 18.8498 7.16873
1 15.2491 19.169 7.20257
1 17.2923 19.1635 9.02406
1 15.2131 21.2515 9.96821
1 15.2237 19.1216 11.7958
2 15.2096 21.0975 11.8985
1 17.1737 21.0981 12.284
1 15.2093 21.0974 13.8707
2 17.1719 21.0231 14.2522
1 17.1708 19.1395 14.6478
1 17.1675 21.0554 16.2736
2 17.1632 19.1641 16.6668
1 15.1975 19.1319 17.0912
1 17.1621 19.1159 18.6458
2 15.2085 19.125 19.0654
1 15.2159 21.0782 19.481
1 15.2123 19.1286 21.0398
2 15.2014 21.0814 21.4634
1 17.1577 21.0729 21.8799
1 15.1863 21.0918 23.4506
2 17.1588 21.0991 23.8507
1 17.1521 19.1589 24.2434
1 17.1683 21.0982 25.8288
2 17.1518 19.1573 26.2181
1 15.177 19.1444 26.5878
1 16.95 19.2562 28.1525
2 15.2246 23.3537 28.5441
1 15.1825 25.1069 0.35135
1 15.1387 22.7893 1.58422
2 15.196 25.0772 2.30087