1767
Atoms. Timestep: 146
2 -0.152248 -0.152254 0.096491
1 -0.152248 1.76175 0.488154
1 -0.152249 -0.152252 2.0673
2 -0.15224 1.76173 2.45894
1 1.76175 1.76175 2.85062
1 -0.152173 1.76176 4.42976
2 1.76174 1.76172 4.82142
1 1.76175 -0.152262 5.21307
1 1.76171 1.76175 6.79227
2 1.76176 -0.152268 7.18388
1 -0.152228 -0.152246 7.57556
1 1.76178 -0.152261 9.15469
2 -0.152247 -0.152355 9.54641
1 -0.152268 1.76108 9.93816
1 -0.152237 -0.152393 11.5173
2 -0.152219 1.76117 11.9091
1 1.76177 1.76181 12.3005
1 -0.152256 1.76178 13.8797
2 1.76175 1.76172 14.2713
1 1.76175 -0.152248 14.663
1 1.76175 1.76174 16.2421
2 1.76175 -0.15222 16.6338
1 -0.152248 -0.152263 17.0254
1 1.76175 -0.152252 18.6046
2 -0.152249 -0.15225 18.9962
1 -0.152252 1.76174 19.3879
1 -0.152249 -0.15225 20.967
2 -0.152235 1.76173 21.3587
1 1.76176 1.76174 21.7504
1 -0.152216 1.76174 23.3295
2 1.76176 1.76175 23.7212
1 1.76175 -0.152249 24.1128
1 1.76175 1.76175 25.692
2 1.76175 -0.15225 26.0836
1 -0.152251 -0.152243 26.4753
1 1.76175 -0.152248 28.0544
2 -0.152264 3.67573 0.0965449
1 -0.152159 5.58974 0.48808
1 -0.152313 3.67581 2.06747
2 -0.152088 5.59015 2.45908
1 1.76173 5.5897 2.85068
1 -0.152286 5.59013 4.43046
2 1.76214 5.58966 4.82166
1 1.76193 3.67597 5.21324
1 1.75774 5.59207 6.79407
2 1.76203 3.67594 7.18349
1 -0.151677 3.6756 7.57573
1 1.76244 3.6756 9.15412
2 -0.152348 3.66986 9.54696
1 -0.151603 5.574 9.93783
1 -0.152732 3.67346 11.5202
2 -0.156064 5.5891 11.911
1 1.75945 5.59377 12.2987
1 -0.152454 5.59097 13.8791
2 1.76184 5.58923 14.2711
1 1.76179 3.67576 14.6629
1 1.76181 5.58963 16.2422
2 1.76175 3.67571 16.6338
1 -0.152252 3.67576 17.0254
1 1.76174 3.67577 18.6046
2 -0.152268 3.67571 18.9962
1 -0.152036 5.58994 19.3881
1 -0.152289 3.67575 20.9671
2 -0.151983 5.58995 21.3583
1 1.76175 5.58975 21.7502
1 -0.15156 5.5896 23.3289
2 1.76173 5.58977 23.7212
1 1.76166 3.67578 24.1128
1 1.76176 5.58975 25.6921
2 1.76176 3.67572 26.0836
1 -0.152228 3.67581 26.4753
1 1.76175 3.67576 28.0544
2 -0.152028 7.50332 0.0960543
1 -0.153164 9.41779 0.487973
1 -0.152089 7.50395 2.06673
2 -0.154233 9.41758 2.46117
1 1.76098 9.41781 2.85091
1 -0.156533 9.41768 4.43634
2 1.76101 9.41777 4.82066
1 1.76049 7.50396 5.21362
1 1.76242 9.41783 6.79151
2 1.76231 7.50756 7.18164
1 -0.155758 7.50293 7.58726
1 1.77751 7.50308 9.15485
2 -0.0885066 7.43964 9.54632
1 -0.29077 9.41471 9.92884
1 -0.151451 7.50689 11.5057
2 -0.1156 9.41408 11.9384
1 1.77287 9.41765 12.3034
1 -0.161958 9.41655 13.8784
2 1.76556 9.41186 14.2783
1 1.76135 7.50311 14.6624
1 1.76246 9.41547 16.2464
2 1.76138 7.50301 16.6339
1 -0.152451 7.50378 17.026
1 1.76175 7.50369 18.6047
2 -0.151814 7.50353 18.9967
1 -0.153633 9.41817 19.3881
1 -0.15623 7.50613 20.9689
2 -0.151705 9.42166 21.3563
1 1.76403 9.41823 21.7474
1 -0.136574 9.4171 23.3296
2 1.76762 9.41785 23.7206
1 1.7619 7.50306 24.1134
1 1.76191 9.41718 25.6918
2 1.76157 7.50349 26.084
1 -0.154568 7.50773 26.4734
1 1.76156 7.50354 28.0543
2 -0.148214 11.3318 0.102624
1 -0.152574 13.2457 0.487463
1 -0.150956 11.3316 2.06811
2 -0.152491 13.2455 2.45901
1 1.76166 13.2457 2.85049
1 -0.15227 13.2455 4.43063
2 1.76226 13.2458 4.8214
1 1.76055 11.3315 5.21363
1 1.75784 13.2436 6.79355
2 1.76246 11.3283 7.18175
1 -0.155789 11.3314 7.58595
1 1.77759 11.3329 9.15554
2 -0.0884899 11.3922 9.54012
1 -0.151581 13.2705 9.93836
1 -0.151638 11.3182 11.5025
2 -0.156291 13.2089 11.8807
1 1.75592 13.2409 12.3105
1 -0.152448 13.3836 13.8851
2 1.82571 13.1824 14.2711
1 1.76196 11.3161 14.6621
1 1.7626 13.2492 16.2303
2 1.75744 11.3314 16.636
1 -0.153133 11.3311 17.0272
1 1.76135 11.3331 18.6042
2 -0.152919 11.3326 18.9964
1 -0.153473 13.2499 19.3819
1 -0.151504 11.3325 20.9658
2 -0.151704 13.2435 21.3541
1 1.76386 13.2452 21.7479
1 -0.136583 13.2469 23.3292
2 1.76767 13.2455 23.7208
1 1.76299 11.3317 24.1135
1 1.76193 13.2463 25.6918
2 1.76555 11.3317 26.0845
1 -0.141644 11.3318 26.478
1 1.76473 11.3318 28.0574
2 -0.152171 15.1601 0.0963137
1 -0.152208 17.0737 0.48809
1 -0.152256 15.1597 2.06739
2 -0.152248 17.0738 2.459
1 1.76176 17.0738 2.85058
1 -0.152174 17.0736 4.42991
2 1.76187 17.0738 4.82121
1 1.76139 15.1595 5.21374
1 1.76182 17.0736 6.79176
2 1.76046 15.1596 7.1858
1 -0.151684 15.1599 7.5813
1 1.75817 15.1599 9.16066
2 -0.152357 15.1656 9.58094
1 -0.152269 17.0648 9.93871
1 -0.152724 15.1618 11.6543
2 -0.152224 17.1107 11.8786
1 1.75826 17.0745 12.3122
1 -0.152247 16.935 13.8856
2 1.82548 17.1375 14.2713
1 1.62313 15.1597 14.657
1 1.76256 17.0702 16.2303
2 1.79834 15.1598 16.6643
1 -0.15227 15.1598 16.8913
1 1.75197 15.1598 18.6041
2 -0.15189 15.1598 18.9625
1 -0.152077 17.0692 19.3815
1 -0.15624 15.1574 20.9634
2 -0.15197 17.072 21.356
1 1.76157 17.0739 21.7508
1 -0.15156 17.0734 23.3284
2 1.76178 17.0739 23.7214
1 1.76179 15.1604 24.1133
1 1.76179 17.0738 25.6921
2 1.76155 15.16 26.084
1 -0.154574 15.1557 26.4735
1 1.76153 15.1599 28.0543
2 -0.152251 18.9878 0.0964944
1 -0.152251 20.9018 0.488157
1 -0.152254 18.9878 2.06731
2 -0.152246 20.9018 2.45896
1 1.76175 20.9017 2.85063
1 -0.15225 20.9018 4.42975
2 1.76174 20.9017 4.82148
1 1.7618 18.9878 5.21306
1 1.76169 20.9017 6.79239
2 1.76193 18.9874 7.18398
1 -0.152228 18.9889 7.57424
1 1.76175 18.9874 9.15537
2 -0.152247 18.9918 9.54007
1 -0.152252 20.9047 9.93505
1 -0.152237 18.9985 11.5145
2 -0.152248 20.9056 11.908
1 1.76232 20.9019 12.3007
1 -0.152248 20.9029 13.879
2 1.76165 20.9076 14.2719
1 1.76239 19.0034 14.6628
1 1.76127 20.904 16.2451
2 1.75794 18.9883 16.636
1 -0.152246 18.9885 17.0263
1 1.76154 18.9865 18.6041
2 -0.152259 18.9871 18.997
1 -0.152252 20.9015 19.3877
1 -0.152286 18.9871 20.9666
2 -0.152236 20.9017 21.3586
1 1.76175 20.9018 21.7504
1 -0.152216 20.9018 23.3295
2 1.76175 20.9017 23.7212
1 1.7617 18.9878 24.1128
1 1.76175 20.9017 25.692
2 1.76175 18.9878 26.0836
1 -0.152227 18.9877 26.4753
1 1.76175 18.9877 28.0544
2 -0.152248 22.8157 0.0964946
1 -0.152248 24.7297 0.488155
1 -0.152248 22.8157 2.0673
2 -0.152248 24.7297 2.45896
1 1.76175 24.7297 2.85062
1 -0.15225 24.7298 4.42977
2 1.76175 24.7297 4.82143
1 1.76175 22.8157 5.21309
1 1.76175 24.7297 6.79224
2 1.76176 22.8158 7.18387
1 -0.152248 22.8157 7.57552
1 1.76183 22.8157 9.15469
2 -0.152248 22.8166 9.54629
1 -0.152252 24.7299 9.938
1 -0.152248 22.8161 11.5174
2 -0.152248 24.7298 11.9088
1 1.76177 24.7297 12.3005
1 -0.152249 24.7298 13.8796
2 1.76175 24.7299 14.2713
1 1.76173 22.8164 14.6631
1 1.76176 24.7299 16.2422
2 1.76178 22.8163 16.634
1 -0.152248 22.8156 17.0254
1 1.76174 22.8157 18.6046
2 -0.152249 22.8158 18.9962
1 -0.152248 24.7298 19.3879
1 -0.152249 22.8157 20.967
2 -0.152248 24.7297 21.3587
1 1.76175 24.7297 21.7504
1 -0.152247 24.7297 23.3295
2 1.76175 24.7297 23.7212
1 1.76175 22.8157 24.1128
1 1.76175 24.7297 25.692
2 1.76175 22.8157 26.0836
1 -0.152251 22.8157 26.4753
1 1.76175 22.8157 28.0544
2 3.67575 -0.152249 0.096495
1 3.67575 1.76175 0.488155
1 3.67575 -0.152248 2.0673
2 3.67575 1.76175 2.45896
1 5.58975 1.76175 2.85062
1 3.67574 1.76176 4.42977
2 5.58975 1.76175 4.82143
1 5.58975 -0.152247 5.21309
1 5.58976 1.76175 6.79223
2 5.58975 -0.152245 7.1839
1 3.67576 -0.152255 7.57556
1 5.58975 -0.152252 9.1547
2 3.67576 -0.152239 9.54637
1 3.67566 1.76178 9.93801
1 3.67575 -0.152247 11.5172
2 3.67576 1.76172 11.9088
1 5.58975 1.76175 12.3005
1 3.67575 1.76176 13.8796
2 5.58975 1.76175 14.2713
1 5.58975 -0.152248 14.663
1 5.58975 1.76175 16.2421
2 5.58975 -0.152246 16.6338
1 3.67575 -0.152253 17.0254
1 5.58975 -0.152248 18.6046
2 3.67575 -0.152247 18.9962
1 3.67575 1.76175 19.3879
1 3.67575 -0.152247 20.967
2 3.67575 1.76175 21.3587
1 5.58975 1.76175 21.7504
1 3.67575 1.76175 23.3295
2 5.58975 1.76175 23.7212
1 5.58975 -0.152248 24.1128
1 5.58975 1.76175 25.692
2 5.58975 -0.152248 26.0836
1 3.67575 -0.152248 26.4753
1 5.58975 -0.152248 28.0544
2 3.67575 3.67575 0.0964971
1 3.67574 5.58976 0.488151
1 3.67575 3.67575 2.0673
2 3.67576 5.58976 2.45895
1 5.58976 5.58976 2.85061
1 3.67574 5.58971 4.42983
2 5.58978 5.58975 4.82143
1 5.58974 3.67575 5.2131
1 5.58969 5.58973 6.79227
2 5.58978 3.67574 7.1839
1 3.67575 3.67574 7.57543
1 5.58972 3.67584 9.15472
2 3.67573 3.67576 9.54636
1 3.6759 5.58905 9.9386
1 3.67576 3.67575 11.5173
2 3.67558 5.58945 11.9092
1 5.58976 5.58978 12.3005
1 3.67556 5.58957 13.8795
2 5.58979 5.58976 14.2713
1 5.58974 3.67576 14.663
1 5.58976 5.58975 16.2421
2 5.58975 3.67575 16.6338
1 3.67575 3.67576 17.0254
1 5.58975 3.67575 18.6046
2 3.67575 3.67575 18.9962
1 3.67574 5.58975 19.3879
1 3.67576 3.67575 20.967
2 3.67578 5.58974 21.3587
1 5.58975 5.58975 21.7504
1 3.67572 5.58984 23.3295
2 5.58975 5.58974 23.7212
1 5.58976 3.67575 24.1128
1 5.58976 5.58975 25.692
2 5.58975 3.67575 26.0836
1 3.67575 3.67575 26.4753
1 5.58975 3.67575 28.0544
2 3.67578 7.50377 0.0965073
1 3.67575 9.41768 0.488183
1 3.67576 7.50375 2.06731
2 3.67568 9.41774 2.45907
1 5.5897 9.41775 2.85067
1 3.67553 9.41775 4.42991
2 5.58976 9.41775 4.82146
1 5.58972 7.50376 5.21306
1 5.58956 9.41775 6.79229
2 5.59033 7.50372 7.18367
1 3.67804 7.50423 7.57255
1 5.59042 7.50378 9.15457
2 3.68162 7.50382 9.54576
1 3.67714 9.41797 9.93883
1 3.67587 7.50318 11.517
2 3.67982 9.41794 11.9093
1 5.59014 9.41774 12.3001
1 3.67938 9.4176 13.882
2 5.59055 9.41777 14.2714
1 5.58965 7.5037 14.663
1 5.58971 9.41775 16.2423
2 5.58978 7.50371 16.6338
1 3.67571 7.50388 17.0252
1 5.58975 7.50376 18.6046
2 3.67577 7.50374 18.9962
1 3.67577 9.41777 19.3878
1 3.67568 7.50372 20.9671
2 3.67632 9.41771 21.3585
1 5.5899 9.41774 21.7502
1 3.67643 9.41777 23.3294
2 5.58988 9.41775 23.7211
1 5.58976 7.50372 24.1128
1 5.58974 9.41773 25.692
2 5.58977 7.50374 26.0837
1 3.67575 7.50379 26.4753
1 5.58977 7.50376 28.0545
2 3.67657 11.3317 0.096583
1 3.67574 13.2458 0.48817
1 3.6757 11.3317 2.06734
2 3.67578 13.2458 2.45897
1 5.58976 13.2457 2.85062
1 3.67577 13.2458 4.42982
2 5.58979 13.2458 4.82144
1 5.58971 11.3317 5.21306
1 5.5897 13.2458 6.79227
2 5.59034 11.3318 7.18365
1 3.67803 11.3312 7.5726
1 5.59042 11.3317 9.15463
2 3.68204 11.3316 9.54601
1 3.67465 13.2466 9.93914
1 3.67188 11.3347 11.5188
2 3.67614 13.2498 11.907
1 5.59204 13.2462 12.2975
1 3.69126 13.2453 13.8796
2 5.59566 13.2458 14.2707
1 5.5899 11.3311 14.6636
1 5.58991 13.2452 16.2419
2 5.58958 11.3315 16.6342
1 3.6733 11.3357 17.0235
1 5.58953 11.3316 18.6044
2 3.67583 11.3313 18.996
1 3.67534 13.2458 19.3872
1 3.67561 11.3318 20.967
2 3.67592 13.2456 21.3584
1 5.58983 13.2458 21.7501
1 3.67644 13.2457 23.3294
2 5.58987 13.2458 23.7211
1 5.58979 11.3318 24.1129
1 5.58974 13.2458 25.692
2 5.58983 11.3318 26.0837
1 3.67614 11.3318 26.4751
1 5.58987 11.3317 28.0545
2 3.67578 15.1597 0.0965028
1 3.67574 17.0737 0.488153
1 3.67576 15.1598 2.0673
2 3.67575 17.0737 2.45896
1 5.58975 17.0737 2.85063
1 3.67577 17.0738 4.42976
2 5.58975 17.0737 4.82143
1 5.58975 15.1598 5.21311
1 5.58976 17.0737 6.79224
2 5.58968 15.1598 7.18399
1 3.67506 15.1598 7.57587
1 5.5895 15.1597 9.15486
2 3.67501 15.1597 9.5456
1 3.6744 17.0735 9.93853
1 3.67648 15.1598 11.5164
2 3.67631 17.07 11.9066
1 5.59204 17.0733 12.2975
1 3.69142 17.0744 13.8798
2 5.59563 17.0737 14.2707
1 5.59094 15.1597 14.6636
1 5.58991 17.0743 16.2419
2 5.59356 15.1598 16.6346
1 3.68636 15.1597 17.0282
1 5.5927 15.1597 18.6076
2 3.67968 15.1597 19.0026
1 3.67536 17.0737 19.3872
1 3.67688 15.1598 20.9684
2 3.67537 17.0739 21.3586
1 5.58968 17.0737 21.7502
1 3.67574 17.0737 23.3295
2 5.58974 17.0737 23.7211
1 5.58977 15.1598 24.1129
1 5.58975 17.0738 25.692
2 5.58977 15.1598 26.0837
1 3.67575 15.1597 26.4753
1 5.58977 15.1597 28.0545
2 3.67575 18.9877 0.0964964
1 3.67575 20.9017 0.488154
1 3.67575 18.9877 2.06731
2 3.67575 20.9018 2.45896
1 5.58975 20.9017 2.85062
1 3.67575 20.9017 4.42977
2 5.58975 20.9017 4.82143
1 5.58975 18.9877 5.21309
1 5.58975 20.9017 6.79224
2 5.58976 18.9877 7.18388
1 3.67574 18.9878 7.57562
1 5.58974 18.9878 9.15477
2 3.67615 18.9878 9.5466
1 3.67593 20.9015 9.93817
1 3.67174 18.9854 11.519
2 3.67603 20.9016 11.9084
1 5.58975 20.9018 12.3004
1 3.67644 20.9019 13.8791
2 5.58973 20.9017 14.2713
1 5.58991 18.9884 14.6635
1 5.58976 20.9017 16.2422
2 5.58956 18.988 16.6342
1 3.67343 18.9837 17.0236
1 5.58953 18.9879 18.6044
2 3.67584 18.9881 18.996
1 3.67579 20.9017 19.3878
1 3.67581 18.9877 20.967
2 3.67574 20.9018 21.3587
1 5.58975 20.9017 21.7504
1 3.67575 20.9017 23.3295
2 5.58975 20.9017 23.7212
1 5.58975 18.9877 24.1128
1 5.58975 20.9017 25.692
2 5.58975 18.9877 26.0836
1 3.67575 18.9878 26.4753
1 5.58975 18.9878 28.0544
2 3.67575 22.8157 0.0964951
1 3.67575 24.7297 0.488156
1 3.67575 22.8157 2.0673
2 3.67575 24.7297 2.45896
1 5.58975 24.7297 2.85062
1 3.67575 24.7297 4.42977
2 5.58975 24.7297 4.82143
1 5.58975 22.8157 5.21309
1 5.58975 24.7297 6.79224
2 5.58975 22.8157 7.1839
1 3.67575 22.8158 7.57556
1 5.58974 22.8157 9.15471
2 3.67574 22.8158 9.54636
1 3.67575 24.7298 9.93801
1 3.67571 22.8157 11.5172
2 3.67576 24.7298 11.9088
1 5.58976 24.7298 12.3005
1 3.67578 24.7298 13.8796
2 5.58976 24.7297 14.2713
1 5.58966 22.8157 14.6629
1 5.58975 24.7297 16.2421
2 5.58976 22.8158 16.6338
1 3.67577 22.8157 17.0254
1 5.58975 22.8157 18.6046
2 3.67575 22.8158 18.9962
1 3.67575 24.7297 19.3879
1 3.67575 22.8158 20.967
2 3.67575 24.7298 21.3587
1 5.58975 24.7297 21.7504
1 3.67575 24.7297 23.3295
2 5.58975 24.7297 23.7212
1 5.58975 22.8157 24.1128
1 5.58975 24.7297 25.692
2 5.58975 22.8157 26.0836
1 3.67575 22.8157 26.4753
1 5.58975 22.8157 28.0544
2 7.50375 -0.152248 0.0964949
1 7.50375 1.76175 0.488156
1 7.50375 -0.152248 2.0673
2 7.50375 1.76175 2.45896
1 9.41775 1.76175 2.85062
1 7.50375 1.76175 4.42977
2 9.41775 1.76175 4.82143
1 9.41775 -0.152248 5.21309
1 9.41775 1.76175 6.79224
2 9.41775 -0.152249 7.1839
1 7.50375 -0.152247 7.57556
1 9.41775 -0.152248 9.1547
2 7.50375 -0.152249 9.54637
1 7.50375 1.76175 9.93803
1 7.50375 -0.152248 11.5172
2 7.50375 1.76175 11.9088
1 9.41775 1.76175 12.3005
1 7.50375 1.76175 13.8796
2 9.41775 1.76175 14.2713
1 9.41775 -0.152248 14.663
1 9.41775 1.76175 16.2421
2 9.41775 -0.152248 16.6338
1 7.50375 -0.152249 17.0254
1 9.41775 -0.152248 18.6046
2 7.50375 -0.152248 18.9962
1 7.50375 1.76175 19.3879
1 7.50375 -0.152248 20.967
2 7.50375 1.76175 21.3587
1 9.41775 1.76175 21.7504
1 7.50375 1.76175 23.3295
2 9.41775 1.76175 23.7212
1 9.41775 -0.152248 24.1128
1 9.41775 1.76175 25.692
2 9.41775 -0.152248 26.0836
1 7.50375 -0.152248 26.4753
1 9.41775 -0.152248 28.0544
2 7.50375 3.67575 0.0964948
1 7.50375 5.58975 0.488156
1 7.50375 3.67575 2.0673
2 7.50375 5.58975 2.45896
1 9.41775 5.58975 2.85062
1 7.50375 5.58975 4.42977
2 9.41775 5.58975 4.82143
1 9.41775 3.67575 5.21309
1 9.41775 5.58975 6.79224
2 9.41775 3.67575 7.1839
1 7.50375 3.67575 7.57556
1 9.41775 3.67575 9.1547
2 7.50375 3.67574 9.54636
1 7.50376 5.58972 9.93805
1 7.50376 3.67575 11.5172
2 7.50377 5.58974 11.9089
1 9.41775 5.58975 12.3005
1 7.50377 5.58975 13.8797
2 9.41776 5.58975 14.2713
1 9.41775 3.67575 14.663
1 9.41775 5.58975 16.2421
2 9.41775 3.67575 16.6338
1 7.50375 3.67575 17.0254
1 9.41775 3.67575 18.6046
2 7.50375 3.67575 18.9962
1 7.50375 5.58975 19.3879
1 7.50375 3.67575 20.967
2 7.50375 5.58975 21.3587
1 9.41775 5.58975 21.7504
1 7.50375 5.58975 23.3295
2 9.41775 5.58975 23.7212
1 9.41775 3.67575 24.1128
1 9.41775 5.58975 25.692
2 9.41775 3.67575 26.0836
1 7.50375 3.67575 26.4753
1 9.41775 3.67575 28.0544
2 7.50376 7.50375 0.096496
1 7.50375 9.41775 0.488155
1 7.50375 7.50375 2.0673
2 7.50375 9.41775 2.45896
1 9.41775 9.41775 2.85062
1 7.50375 9.41775 4.42977
2 9.41776 9.41775 4.82143
1 9.41775 7.50375 5.21309
1 9.41773 9.41775 6.79224
2 9.41778 7.50375 7.18389
1 7.5039 7.50374 7.57544
1 9.41775 7.50375 9.15469
2 7.50388 7.50375 9.54631
1 7.50378 9.41775 9.93808
1 7.50375 7.50373 11.5172
2 7.50386 9.41774 11.9089
1 9.41775 9.41775 12.3005
1 7.50384 9.41784 13.8797
2 9.41777 9.41774 14.2713
1 9.41775 7.50375 14.663
1 9.41775 9.41775 16.2421
2 9.41775 7.50375 16.6338
1 7.50375 7.50375 17.0254
1 9.41775 7.50375 18.6046
2 7.50376 7.50375 18.9962
1 7.50373 9.41776 19.3879
1 7.50375 7.50375 20.967
2 7.50378 9.41775 21.3587
1 9.41775 9.41775 21.7504
1 7.50375 9.41775 23.3295
2 9.41775 9.41775 23.7212
1 9.41775 7.50375 24.1128
1 9.41775 9.41775 25.692
2 9.41775 7.50375 26.0836
1 7.50375 7.50375 26.4753
1 9.41775 7.50375 28.0544
2 7.50377 11.3318 0.0964987
1 7.50375 13.2457 0.488155
1 7.50375 11.3318 2.0673
2 7.50375 13.2458 2.45896
1 9.41775 13.2458 2.85062
1 7.50375 13.2457 4.42977
2 9.41775 13.2458 4.82143
1 9.41775 11.3317 5.21309
1 9.41774 13.2457 6.79224
2 9.41778 11.3317 7.18389
1 7.50391 11.3318 7.57544
1 9.41775 11.3317 9.15469
2 7.50391 11.3318 9.54631
1 7.50372 13.2458 9.93801
1 7.50368 11.3317 11.5172
2 7.50435 13.2457 11.9086
1 9.4179 13.2457 12.3004
1 7.50444 13.2458 13.8795
2 9.41789 13.2457 14.2713
1 9.41775 11.3317 14.663
1 9.41774 13.2457 16.2421
2 9.41778 11.3317 16.6338
1 7.50376 11.3318 17.0254
1 9.41777 11.3318 18.6046
2 7.50379 11.3318 18.9962
1 7.50374 13.2457 19.3879
1 7.50374 11.3317 20.967
2 7.5038 13.2457 21.3587
1 9.41775 13.2458 21.7504
1 7.50375 13.2457 23.3295
2 9.41776 13.2458 23.7212
1 9.41775 11.3317 24.1128
1 9.41775 13.2457 25.692
2 9.41775 11.3318 26.0836
1 7.50375 11.3317 26.4753
1 9.41775 11.3318 28.0544
2 7.50376 15.1597 0.0964952
1 7.50375 17.0737 0.488156
1 7.50375 15.1597 2.0673
2 7.50375 17.0738 2.45896
1 9.41775 17.0737 2.85062
1 7.50375 17.0737 4.42977
2 9.41775 17.0737 4.82143
1 9.41775 15.1597 5.21309
1 9.41775 17.0737 6.79224
2 9.41774 15.1597 7.18389
1 7.5037 15.1598 7.57561
1 9.41775 15.1597 9.1547
2 7.50375 15.1598 9.54638
1 7.50372 17.0737 9.93799
1 7.50357 15.1598 11.5172
2 7.50433 17.0738 11.9086
1 9.4179 17.0738 12.3004
1 7.50442 17.0737 13.8795
2 9.41788 17.0738 14.2712
1 9.41779 15.1598 14.663
1 9.41774 17.0738 16.2421
2 9.41783 15.1597 16.6338
1 7.50415 15.1597 17.0252
1 9.41787 15.1598 18.6046
2 7.50457 15.1598 18.9963
1 7.50374 17.0738 19.3879
1 7.5037 15.1597 20.9671
2 7.50377 17.0738 21.3587
1 9.41775 17.0737 21.7504
1 7.50375 17.0738 23.3295
2 9.41776 17.0738 23.7212
1 9.41775 15.1598 24.1128
1 9.41775 17.0737 25.692
2 9.41775 15.1597 26.0836
1 7.50375 15.1597 26.4753
1 9.41775 15.1598 28.0544
2 7.50375 18.9877 0.0964949
1 7.50375 20.9017 0.488156
1 7.50375 18.9877 2.0673
2 7.50375 20.9017 2.45896
1 9.41775 20.9017 2.85062
1 7.50375 20.9017 4.42977
2 9.41775 20.9017 4.82143
1 9.41775 18.9877 5.21309
1 9.41775 20.9017 6.79224
2 9.41775 18.9878 7.1839
1 7.50376 18.9877 7.57555
1 9.41775 18.9877 9.1547
2 7.50378 18.9877 9.54636
1 7.50374 20.9017 9.93803
1 7.50369 18.9878 11.5172
2 7.50378 20.9018 11.9088
1 9.41775 20.9018 12.3005
1 7.50372 20.9017 13.8797
2 9.41775 20.9018 14.2713
1 9.41776 18.9878 14.663
1 9.41776 20.9018 16.2421
2 9.41777 18.9878 16.6338
1 7.50375 18.9877 17.0254
1 9.41777 18.9877 18.6046
2 7.50378 18.9877 18.9962
1 7.50374 20.9017 19.3879
1 7.50375 18.9878 20.967
2 7.50375 20.9018 21.3587
1 9.41775 20.9017 21.7504
1 7.50375 20.9017 23.3295
2 9.41775 20.9017 23.7212
1 9.41775 18.9877 24.1128
1 9.41775 20.9017 25.692
2 9.41775 18.9877 26.0836
1 7.50375 18.9877 26.4753
1 9.41775 18.9877 28.0544
2 7.50375 22.8157 0.096495
1 7.50375 24.7297 0.488156
1 7.50375 22.8157 2.0673
2 7.50375 24.7297 2.45896
1 9.41775 24.7297 2.85062
1 7.50375 24.7297 4.42977
2 9.41775 24.7297 4.82143
1 9.41775 22.8157 5.21309
1 9.41775 24.7297 6.79224
2 9.41775 22.8157 7.1839
1 7.50375 22.8157 7.57556
1 9.41775 22.8157 9.15471
2 7.50375 22.8157 9.54636
1 7.50375 24.7297 9.93803
1 7.50376 22.8157 11.5172
2 7.50375 24.7297 11.9088
1 9.41775 24.7297 12.3005
1 7.50375 24.7298 13.8796
2 9.41775 24.7297 14.2713
1 9.41775 22.8158 14.663
1 9.41775 24.7297 16.2421
2 9.41775 22.8157 16.6338
1 7.50375 22.8158 17.0254
1 9.41775 22.8157 18.6046
2 7.50375 22.8157 18.9962
1 7.50375 24.7297 19.3879
1 7.50375 22.8157 20.967
2 7.50375 24.7297 21.3587
1 9.41775 24.7297 21.7504
1 7.50375 24.7297 23.3295
2 9.41775 24.7297 23.7212
1 9.41775 22.8157 24.1128
1 9.41775 24.7297 25.692
2 9.41775 22.8157 26.0836
1 7.50375 22.8157 26.4753
1 9.41775 22.8157 28.0544
2 11.3318 -0.152248 0.096495
1 11.3318 1.76175 0.488156
1 11.3318 -0.152248 2.0673
2 11.3318 1.76175 2.45896
1 13.2457 1.76175 2.85062
1 11.3318 1.76175 4.42977
2 13.2457 1.76175 4.82143
1 13.2457 -0.152248 5.21309
1 13.2458 1.76175 6.79224
2 13.2457 -0.152248 7.1839
1 11.3318 -0.152248 7.57556
1 13.2457 -0.152248 9.1547
2 11.3318 -0.152248 9.54637
1 11.3318 1.76175 9.93803
1 11.3318 -0.152248 11.5172
2 11.3318 1.76175 11.9088
1 13.2458 1.76175 12.3005
1 11.3318 1.76175 13.8796
2 13.2458 1.76175 14.2713
1 13.2457 -0.152248 14.663
1 13.2457 1.76175 16.2421
2 13.2458 -0.152248 16.6338
1 11.3318 -0.152248 17.0254
1 13.2457 -0.152248 18.6046
2 11.3318 -0.152248 18.9962
1 11.3318 1.76175 19.3879
1 11.3318 -0.152248 20.967
2 11.3318 1.76175 21.3587
1 13.2458 1.76175 21.7504
1 11.3318 1.76175 23.3295
2 13.2457 1.76175 23.7212
1 13.2458 -0.152248 24.1128
1 13.2458 1.76175 25.692
2 13.2457 -0.152248 26.0836
1 11.3318 -0.152248 26.4753
1 13.2457 -0.152248 28.0544
2 11.3318 3.67575 0.0964949
1 11.3318 5.58975 0.488156
1 11.3318 3.67575 2.0673
2 11.3318 5.58975 2.45896
1 13.2457 5.58975 2.85062
1 11.3318 5.58975 4.42977
2 13.2457 5.58975 4.82143
1 13.2457 3.67575 5.21309
1 13.2458 5.58975 6.79224
2 13.2457 3.67575 7.1839
1 11.3318 3.67575 7.57556
1 13.2457 3.67575 9.1547
2 11.3318 3.67575 9.54636
1 11.3318 5.58975 9.93803
1 11.3318 3.67575 11.5172
2 11.3318 5.58975 11.9088
1 13.2457 5.58975 12.3005
1 11.3318 5.58975 13.8796
2 13.2457 5.58975 14.2713
1 13.2458 3.67575 14.663
1 13.2458 5.58975 16.2421
2 13.2457 3.67575 16.6338
1 11.3318 3.67575 17.0254
1 13.2458 3.67575 18.6046
2 11.3317 3.67575 18.9962
1 11.3318 5.58975 19.3879
1 11.3318 3.67575 20.967
2 11.3317 5.58975 21.3587
1 13.2457 5.58975 21.7504
1 11.3317 5.58975 23.3295
2 13.2458 5.58974 23.7212
1 13.2457 3.67575 24.1128
1 13.2457 5.58975 25.692
2 13.2458 3.67575 26.0836
1 11.3318 3.67575 26.4753
1 13.2458 3.67575 28.0544
2 11.3317 7.50375 0.0964956
1 11.3318 9.41775 0.488155
1 11.3318 7.50375 2.0673
2 11.3317 9.41775 2.45896
1 13.2457 9.41775 2.85062
1 11.3317 9.41775 4.42977
2 13.2457 9.41775 4.82143
1 13.2458 7.50375 5.21309
1 13.2458 9.41775 6.79224
2 13.2457 7.50375 7.18389
1 11.3318 7.50375 7.57555
1 13.2457 7.50375 9.15469
2 11.3318 7.50375 9.54636
1 11.3318 9.41775 9.93803
1 11.3317 7.50375 11.5172
2 11.3318 9.41775 11.9088
1 13.2457 9.41775 12.3005
1 11.3318 9.41775 13.8796
2 13.2457 9.41775 14.2713
1 13.2458 7.50375 14.663
1 13.2458 9.41775 16.2421
2 13.2457 7.50375 16.6338
1 11.3317 7.50375 17.0254
1 13.2457 7.50375 18.6046
2 11.3317 7.50375 18.9962
1 11.3318 9.41775 19.3879
1 11.3318 7.50375 20.967
2 11.3317 9.41775 21.3587
1 13.2456 9.41774 21.7502
1 11.3317 9.41775 23.3295
2 13.2456 9.41775 23.7211
1 13.2457 7.50372 24.1128
1 13.2458 9.41773 25.692
2 13.2457 7.50374 26.0837
1 11.3317 7.50375 26.4753
1 13.2457 7.50375 28.0545
2 11.3317 11.3318 0.0964983
1 11.3318 13.2457 0.488155
1 11.3318 11.3318 2.0673
2 11.3317 13.2458 2.45896
1 13.2457 13.2457 2.85062
1 11.3317 13.2458 4.42977
2 13.2457 13.2458 4.82143
1 13.2458 11.3317 5.21309
1 13.2458 13.2457 6.79224
2 13.2457 11.3318 7.18389
1 11.3318 11.3318 7.57555
1 13.2457 11.3317 9.15469
2 11.3318 11.3318 9.54636
1 11.3317 13.2458 9.93803
1 11.3317 11.3318 11.5172
2 11.3318 13.2457 11.9088
1 13.2457 13.2457 12.3005
1 11.3318 13.2458 13.8796
2 13.2457 13.2457 14.2713
1 13.2458 11.3317 14.663
1 13.2458 13.2457 16.2421
2 13.2458 11.3318 16.6338
1 11.3318 11.3318 17.0254
1 13.2457 11.3317 18.6046
2 11.3318 11.3318 18.9962
1 11.3317 13.2458 19.3879
1 11.3318 11.3318 20.967
2 11.3317 13.2457 21.3587
1 13.2456 13.2458 21.7502
1 11.3318 13.2457 23.3295
2 13.2456 13.2458 23.7211
1 13.2457 11.3318 24.1129
1 13.2458 13.2458 25.692
2 13.2457 11.3318 26.0837
1 11.3317 11.3318 26.4753
1 13.2456 11.3318 28.0545
2 11.3317 15.1597 0.0964958
1 11.3318 17.0738 0.488156
1 11.3318 15.1597 2.0673
2 11.3318 17.0737 2.45896
1 13.2458 17.0737 2.85062
1 11.3318 17.0737 4.42977
2 13.2457 17.0737 4.82143
1 13.2457 15.1598 5.21309
1 13.2458 17.0737 6.79224
2 13.2457 15.1597 7.1839
1 11.3318 15.1597 7.57556
1 13.2457 15.1597 9.1547
2 11.3318 15.1598 9.54637
1 11.3317 17.0737 9.93803
1 11.3317 15.1598 11.5172
2 11.3318 17.0737 11.9088
1 13.2458 17.0737 12.3005
1 11.3318 17.0737 13.8796
2 13.2457 17.0738 14.2713
1 13.2458 15.1598 14.663
1 13.2458 17.0737 16.2421
2 13.2457 15.1598 16.6338
1 11.3318 15.1597 17.0254
1 13.2457 15.1597 18.6046
2 11.3318 15.1598 18.9962
1 11.3317 17.0737 19.3879
1 11.3318 15.1597 20.967
2 11.3318 17.0737 21.3587
1 13.2457 17.0738 21.7504
1 11.3318 17.0737 23.3295
2 13.2458 17.0738 23.7212
1 13.2457 15.1598 24.1128
1 13.2457 17.0738 25.692
2 13.2457 15.1598 26.0837
1 11.3317 15.1597 26.4753
1 13.2457 15.1597 28.0545
2 11.3318 18.9877 0.0964949
1 11.3318 20.9017 0.488156
1 11.3318 18.9877 2.0673
2 11.3318 20.9017 2.45896
1 13.2458 20.9017 2.85062
1 11.3318 20.9017 4.42977
2 13.2458 20.9017 4.82143
1 13.2457 18.9877 5.21309
1 13.2457 20.9017 6.79224
2 13.2458 18.9877 7.1839
1 11.3318 18.9877 7.57556
1 13.2457 18.9877 9.1547
2 11.3318 18.9877 9.54637
1 11.3318 20.9017 9.93803
1 11.3317 18.9877 11.5172
2 11.3318 20.9017 11.9088
1 13.2457 20.9017 12.3005
1 11.3318 20.9017 13.8796
2 13.2457 20.9017 14.2713
1 13.2457 18.9878 14.663
1 13.2458 20.9017 16.2421
2 13.2457 18.9877 16.6338
1 11.3318 18.9877 17.0254
1 13.2458 18.9877 18.6046
2 11.3318 18.9877 18.9962
1 11.3318 20.9017 19.3879
1 11.3318 18.9877 20.967
2 11.3318 20.9017 21.3587
1 13.2458 20.9017 21.7504
1 11.3318 20.9017 23.3295
2 13.2457 20.9017 23.7212
1 13.2457 18.9878 24.1128
1 13.2458 20.9017 25.692
2 13.2458 18.9877 26.0836
1 11.3318 18.9877 26.4753
1 13.2458 18.9877 28.0544
2 11.3318 22.8157 0.096495
1 11.3318 24.7297 0.488156
1 11.3318 22.8157 2.0673
2 11.3318 24.7297 2.45896
1 13.2458 24.7297 2.85062
1 11.3318 24.7297 4.42977
2 13.2458 24.7297 4.82143
1 13.2458 22.8157 5.21309
1 13.2457 24.7297 6.79224
2 13.2458 22.8157 7.1839
1 11.3318 22.8157 7.57556
1 13.2458 22.8157 9.1547
2 11.3318 22.8157 9.54636
1 11.3318 24.7297 9.93803
1 11.3317 22.8157 11.5172
2 11.3318 24.7297 11.9088
1 13.2457 24.7297 12.3005
1 11.3318 24.7297 13.8796
2 13.2458 24.7297 14.2713
1 13.2458 22.8157 14.663
1 13.2457 24.7297 16.2421
2 13.2457 22.8157 16.6338
1 11.3317 22.8157 17.0254
1 13.2457 22.8157 18.6046
2 11.3318 22.8157 18.9962
1 11.3318 24.7297 19.3879
1 11.3318 22.8157 20.967
2 11.3318 24.7297 21.3587
1 13.2457 24.7297 21.7504
1 11.3318 24.7297 23.3295
2 13.2458 24.7297 23.7212
1 13.2458 22.8157 24.1128
1 13.2457 24.7297 25.692
2 13.2457 22.8157 26.0836
1 11.3318 22.8157 26.4753
1 13.2457 22.8157 28.0544
2 15.1597 -0.152249 0.0964951
1 15.1598 1.76175 0.488155
1 15.1597 -0.152248 2.0673
2 15.1597 1.76175 2.45896
1 17.0737 1.76175 2.85062
1 15.1597 1.76175 4.42977
2 17.0738 1.76175 4.82143
1 17.0737 -0.152247 5.21309
1 17.0737 1.76175 6.79223
2 17.0738 -0.152245 7.1839
1 15.1598 -0.152247 7.57556
1 17.0737 -0.152252 9.1547
2 15.1597 -0.152249 9.54637
1 15.1597 1.76175 9.93803
1 15.1598 -0.152248 11.5172
2 15.1598 1.76175 11.9088
1 17.0737 1.76175 12.3005
1 15.1598 1.76175 13.8796
2 17.0737 1.76175 14.2713
1 17.0737 -0.152248 14.663
1 17.0737 1.76175 16.2421
2 17.0737 -0.152249 16.6338
1 15.1597 -0.152248 17.0254
1 17.0737 -0.152248 18.6046
2 15.1597 -0.152248 18.9962
1 15.1597 1.76175 19.3879
1 15.1598 -0.152248 20.967
2 15.1598 1.76175 21.3587
1 17.0737 1.76175 21.7504
1 15.1597 1.76175 23.3295
2 17.0737 1.76175 23.7212
1 17.0737 -0.152249 24.1128
1 17.0737 1.76175 25.692
2 17.0738 -0.15225 26.0836
1 15.1597 -0.152248 26.4753
1 17.0737 -0.152248 28.0544
2 15.1597 3.67575 0.0964964
1 15.1598 5.58976 0.488152
1 15.1597 3.67575 2.0673
2 15.1597 5.58975 2.45896
1 17.0737 5.58976 2.85062
1 15.1597 5.58975 4.42977
2 17.0737 5.58975 4.82143
1 17.0738 3.67575 5.21309
1 17.0738 5.58973 6.79227
2 17.0737 3.67574 7.1839
1 15.1597 3.67575 7.57556
1 17.0738 3.67584 9.15472
2 15.1598 3.67574 9.54636
1 15.1597 5.58972 9.93804
1 15.1597 3.67575 11.5172
2 15.1597 5.58974 11.9089
1 17.0737 5.58979 12.3005
1 15.1597 5.58975 13.8797
2 17.0737 5.58976 14.2713
1 17.0738 3.67576 14.663
1 17.0737 5.58975 16.2421
2 17.0737 3.67575 16.6338
1 15.1598 3.67575 17.0254
1 17.0738 3.67576 18.6046
2 15.1598 3.67575 18.9962
1 15.1598 5.58975 19.3879
1 15.1597 3.67575 20.967
2 15.1597 5.58974 21.3587
1 17.0737 5.58974 21.7502
1 15.1598 5.58984 23.3295
2 17.0738 5.58977 23.7212
1 17.0738 3.67578 24.1128
1 17.0737 5.58975 25.6921
2 17.0737 3.67572 26.0836
1 15.1597 3.67575 26.4753
1 17.0737 3.67576 28.0544
2 15.1597 7.50376 0.0965041
1 15.1598 9.41768 0.488169
1 15.1597 7.50375 2.0673
2 15.1597 9.41774 2.45898
1 17.0739 9.41781 2.85052
1 15.1597 9.41775 4.42977
2 17.0738 9.41776 4.8214
1 17.0738 7.50376 5.21306
1 17.0739 9.41775 6.79228
2 17.0732 7.50372 7.18367
1 15.1596 7.50374 7.57544
1 17.0731 7.50377 9.15457
2 15.1596 7.50375 9.54631
1 15.1597 9.41775 9.93807
1 15.1598 7.50373 11.5172
2 15.1597 9.41775 11.9089
1 17.0734 9.41775 12.3003
1 15.1596 9.41775 13.8797
2 17.0729 9.41775 14.2714
1 17.0738 7.50367 14.663
1 17.0738 9.41775 16.2421
2 17.0737 7.50375 16.6338
1 15.1597 7.50376 17.0254
1 17.0738 7.50371 18.6046
2 15.1597 7.50375 18.9962
1 15.1598 9.41776 19.3879
1 15.1598 7.50373 20.9671
2 15.1592 9.41772 21.3585
1 17.0715 9.41824 21.7474
1 15.1591 9.41777 23.3294
2 17.0679 9.41785 23.7206
1 17.0736 7.50306 24.1134
1 17.0736 9.41718 25.6918
2 17.0739 7.50347 26.084
1 15.1597 7.50379 26.4753
1 17.074 7.50358 28.0543
2 15.1589 11.3318 0.0965797
1 15.1598 13.2458 0.48817
1 15.1598 11.3318 2.06734
2 15.1597 13.2458 2.45898
1 17.0738 13.2457 2.85046
1 15.1598 13.2458 4.42977
2 17.0737 13.2457 4.82138
1 17.0738 11.3317 5.21308
1 17.0738 13.2458 6.79226
2 17.0732 11.3318 7.18367
1 15.1596 11.3318 7.57544
1 17.0731 11.3317 9.15456
2 15.1596 11.3318 9.54632
1 15.1597 13.2458 9.93805
1 15.1598 11.3318 11.5172
2 15.1597 13.2458 11.9088
1 17.0736 13.2457 12.3003
1 15.1597 13.2457 13.8796
2 17.0736 13.2457 14.2713
1 17.0737 11.3318 14.663
1 17.0737 13.2457 16.2421
2 17.0738 11.3317 16.6339
1 15.1598 11.3317 17.0255
1 17.074 11.3318 18.6047