1772
Atoms. Timestep: 443
2 -0.0887509 -0.213865 -0.0245019
1 -0.337564 1.74556 0.436117
1 -0.146537 -0.210142 1.96225
2 -0.222554 1.72792 2.3703
1 1.71411 1.73629 2.76266
1 -0.231834 1.71465 4.29895
2 1.71412 1.70225 4.84343
1 1.70926 -0.232874 5.12778
1 2.46948 1.69508 6.70478
2 1.70811 -0.0985505 7.11625
1 -0.252045 -0.348516 7.58696
1 1.70819 -0.15721 9.10858
2 -0.225602 -0.228349 9.52847
1 -0.231621 1.71006 9.90861
1 -0.233969 -0.224939 11.4921
2 -0.226065 1.71101 11.8839
1 1.67854 1.60684 12.2931
1 -0.247681 1.84998 13.8436
2 1.69186 1.58289 14.2944
1 2.46733 -0.214497 14.7237
1 1.70418 1.72555 16.2779
2 1.70661 -0.213618 16.5677
1 -0.239163 -0.21174 17.1092
1 1.7038 -0.221035 18.6295
2 -0.213489 -0.214425 19.0436
1 -0.210764 1.71068 19.4351
1 -0.201305 -0.218337 21.0082
2 -0.191307 1.70966 21.404
1 1.71156 1.70609 21.8072
1 -0.204747 1.69273 23.3854
2 1.70702 1.70878 23.7761
1 1.69991 -0.21463 24.1783
1 1.71186 1.72953 25.7078
2 1.70919 -0.216651 26.2421
1 -0.225168 -0.229053 26.5317
1 1.70996 0.537312 28.0913
2 -0.226288 3.64031 -0.00572456
1 -0.219389 5.54953 0.367832
1 -0.208941 3.66269 1.95792
2 -0.204071 5.67078 2.34525
1 1.77893 5.44257 2.80009
1 -0.169793 5.48915 4.29764
2 1.72937 5.52884 4.75335
1 1.74295 3.62978 5.15189
1 1.70609 5.55432 6.71346
2 1.71601 3.49707 7.10965
1 -0.238143 3.76211 7.56328
1 1.70884 3.57896 9.08245
2 -0.205028 3.6546 9.51428
1 -0.191732 5.56773 9.94558
1 -0.20508 3.63269 11.482
2 -0.208619 5.55618 11.9068
1 1.71576 5.55701 12.3122
1 -0.213258 5.55367 13.8736
2 1.70518 5.54887 14.2744
1 1.688 3.62637 14.6852
1 1.68024 5.55626 16.2449
2 1.69095 3.6365 16.649
1 -0.223993 3.63438 17.055
1 1.70611 3.62701 18.629
2 -0.210052 3.63151 19.029
1 -0.174842 5.55621 19.3979
1 -0.191397 3.63654 21.005
2 -0.183169 5.55912 21.3673
1 1.74552 5.56344 21.7847
1 -0.0819812 5.56389 23.3055
2 1.78212 5.5582 23.7895
1 1.70803 3.6439 24.1711
1 1.70657 5.54803 25.7567
2 1.71491 3.6265 26.1646
1 -0.20987 3.6084 26.561
1 1.71753 3.63663 28.1486
2 -0.214553 7.48987 0.0906705
1 -0.207425 9.42603 0.372871
1 0.558724 7.48679 1.94335
2 -0.206345 9.29675 2.34646
1 1.77785 9.5365 2.80231
1 -0.159219 9.47526 4.2987
2 1.73279 9.43097 4.75732
1 1.73309 7.47878 5.139
1 1.71961 9.39734 6.72778
2 1.71464 7.47096 7.12281
1 -0.182537 7.47859 7.58776
1 1.72513 7.47201 9.11007
2 -0.20536 7.48125 9.53044
1 -0.190837 9.40452 9.93172
1 -0.215456 7.48584 11.5111
2 -0.209901 9.41336 11.9066
1 1.69996 9.44133 12.304
1 -0.211376 9.40047 13.8852
2 1.71302 9.40143 14.2726
1 1.69956 7.48086 14.6675
1 1.71245 9.39983 16.2468
2 1.69568 7.47565 16.6404
1 -0.218038 7.48869 17.0462
1 1.70126 7.48665 18.6158
2 -0.209846 7.48011 19.0236
1 -0.207782 9.40144 19.4227
1 -0.20068 7.47924 20.9997
2 -0.205043 9.40206 21.3964
1 1.70016 9.40904 21.7978
1 -0.204239 9.42283 23.3804
2 1.71046 9.409 23.7774
1 1.71782 7.48106 24.1801
1 1.71541 9.40754 25.7519
2 1.70386 7.47803 26.1459
1 -0.215937 7.49206 26.5458
1 1.72248 7.48518 28.0818
2 -0.208335 11.3312 -0.0105417
1 -0.210853 13.247 0.404977
1 -0.216109 11.3182 1.95343
2 -0.210713 13.2332 2.38253
1 1.71297 13.2416 2.78216
1 -0.204822 13.2472 4.35764
2 1.71519 13.2545 4.76263
1 1.75093 11.3452 5.1796
1 1.72363 13.26 6.74532
2 1.74367 11.3292 7.13805
1 -0.15726 11.3305 7.52727
1 1.75966 11.3236 9.11555
2 -0.112174 11.3262 9.52918
1 -0.190208 13.2504 9.91698
1 -0.197457 11.3363 11.4973
2 -0.211038 13.2558 11.8944
1 1.71152 13.2566 12.2916
1 -0.207177 13.2407 13.8672
2 1.70971 13.2432 14.2674
1 1.71408 11.3191 14.668
1 1.68399 13.2314 16.2355
2 1.70634 11.3187 16.6459
1 -0.209212 11.3137 17.0463
1 1.70676 11.3366 18.6229
2 -0.208206 11.3235 19.0253
1 -0.199501 13.2483 19.4282
1 -0.211501 11.3247 21.0007
2 -0.21465 13.2431 21.4051
1 1.70335 13.2441 21.7997
1 -0.211642 13.2563 23.3812
2 1.70486 13.2491 23.7823
1 1.71365 11.3313 24.1822
1 1.71788 13.2491 25.7628
2 1.72315 11.328 26.1557
1 -0.204796 11.3461 26.5522
1 1.71643 11.337 28.1285
2 -0.214143 15.1645 0.00721064
1 -0.213847 17.0838 0.406233
1 -0.209483 15.1611 1.98524
2 -0.205997 17.0835 2.38277
1 1.71387 17.0861 2.7848
1 -0.208162 17.0907 4.36041
2 1.71331 17.0921 4.76154
1 1.71058 15.1723 5.1602
1 1.71163 17.0914 6.73899
2 1.7136 15.1754 7.13916
1 -0.207261 15.1718 7.53818
1 1.71407 15.1747 9.11497
2 -0.206762 15.1724 9.51521
1 -0.212496 17.093 9.91302
1 -0.216384 15.1736 11.4919
2 -0.218451 17.0937 11.8903
1 1.69716 17.0926 12.2729
1 -0.201692 17.099 13.8702
2 1.71494 17.0936 14.2695
1 1.72621 15.1703 14.6715
1 1.71249 17.0954 16.2561
2 1.72652 15.1543 16.6438
1 -0.169472 15.1662 17.0329
1 1.73906 15.176 18.6366
2 -0.12992 15.1709 19.0397
1 -0.218836 17.0914 19.4332
1 -0.215607 15.1673 21.0093
2 -0.240803 17.0953 21.4088
1 1.66023 17.0936 21.8058
1 -0.233339 17.0928 23.3947
2 1.67419 17.0871 23.7934
1 1.68591 15.1649 24.1909
1 1.69309 17.0958 25.7669
2 1.70334 15.1725 26.165
1 -0.211693 15.1703 26.5628
1 1.7042 15.1694 28.145
2 -0.21447 19.0045 0.00498797
1 -0.202904 20.9268 0.406584
1 -0.192672 19.0058 1.98233
2 -0.108338 20.9243 2.37856
1 1.75859 20.9199 2.79469
1 -0.159417 20.9301 4.38673
2 1.74222 20.9361 4.77681
1 1.72573 19.0106 5.16667
1 1.72202 20.9373 6.74828
2 1.71214 19.0126 7.13859
1 -0.208539 19.0052 7.53444
1 1.71095 19.0082 9.11205
2 -0.211742 19.01 9.51066
1 -0.198214 20.926 9.91081
1 -0.218584 19.014 11.4906
2 -0.212292 20.9312 11.8919
1 1.70902 20.9319 12.2942
1 -0.212889 20.937 13.8704
2 1.70789 20.9476 14.2673
1 1.71619 19.0166 14.6746
1 1.66952 20.9516 16.2352
2 1.696 19.0319 16.6516
1 -0.215946 19.0149 17.0535
1 1.69378 19.0103 18.6401
2 -0.222076 19.0145 19.0321
1 -0.212967 20.9373 19.4294
1 -0.229465 19.0195 21.0076
2 -0.211475 20.9374 21.4089
1 1.70944 20.9326 21.8098
1 -0.210093 20.9301 23.3857
2 1.71659 20.9281 23.7836
1 1.70048 19.0131 24.187
1 1.71105 20.9388 25.7606
2 1.70771 19.0175 26.1651
1 -0.212143 19.0155 26.5628
1 1.70599 19.0085 28.1462
2 -0.228351 22.8461 0.0109484
1 -0.3494 24.7412 0.443356
1 -0.186311 22.8417 1.99499
2 -0.219921 24.7795 2.38674
1 1.71466 24.7586 2.77511
1 -0.211379 24.7718 4.35639
2 1.71395 24.7765 4.75288
1 1.72796 22.8614 5.16709
1 1.71134 24.7913 6.725
2 1.71729 22.8699 7.13595
1 -0.200936 22.8671 7.52891
1 1.71511 22.8577 9.10761
2 -0.19987 22.8475 9.50705
1 -0.203676 24.7678 9.92996
1 -0.205544 22.8446 11.4801
2 -0.215081 24.7591 11.8978
1 1.7085 24.8354 12.3124
1 -0.245686 24.6404 13.8439
2 1.71336 24.9031 14.301
1 1.71314 22.8711 14.6792
1 1.70919 24.763 16.2805
2 1.70347 22.8601 16.6511
1 -0.220015 22.8569 17.0552
1 1.70934 22.8503 18.6291
2 -0.213074 22.8574 19.0289
1 -0.215914 24.7754 19.4341
1 -0.21397 22.8536 21.0055
2 -0.217491 24.7734 21.4029
1 1.70163 24.7679 21.7971
1 -0.21495 24.7651 23.3729
2 1.70478 24.7806 23.7645
1 1.71483 22.8429 24.1644
1 1.71292 24.7513 25.6988
2 1.71111 22.8575 26.1642
1 -0.208592 22.8589 26.5687
1 1.70621 22.8451 28.1586
2 3.50594 -0.223305 -0.0265966
1 3.76867 1.74266 0.428308
1 3.57373 -0.215949 1.95964
2 3.65377 1.70722 2.37175
1 5.57557 1.69941 2.80754
1 3.65361 1.69728 4.30704
2 5.55586 1.70844 4.78242
1 5.55367 -0.212667 5.17871
1 5.56692 1.70733 6.7617
2 5.56982 -0.231728 7.15027
1 3.67204 -0.3592 7.57749
1 5.56956 -0.229028 9.12776
2 3.63786 -0.237058 9.52073
1 3.64675 1.69486 9.88464
1 3.63019 -0.223791 11.4904
2 3.59176 1.70985 11.8592
1 5.51804 1.68874 12.2321
1 3.62054 1.85511 13.8099
2 5.46919 1.72044 14.2574
1 5.54926 -0.22064 14.6497
1 5.53643 1.68647 16.2312
2 5.55017 -0.225261 16.6473
1 3.65225 -0.217328 17.1096
1 5.5618 -0.215217 18.6419
2 3.62317 -0.2203 19.0416
1 3.59962 1.69705 19.4505
1 3.59035 -0.233099 21.0019
2 3.62086 1.69151 21.4141
1 5.50972 1.548 21.8468
1 3.61926 1.71177 23.3931
2 5.54837 1.68882 23.7922
1 5.56531 -0.219289 24.2066
1 5.55848 1.70599 25.7674
2 5.55847 -0.215013 26.1738
1 3.64539 -0.216302 26.5274
1 5.52848 -0.250884 28.1304
2 3.66347 3.64598 0.00768455
1 3.63778 5.56515 0.412869
1 3.67792 3.63357 1.97838
2 3.66535 5.54996 2.39078
1 5.56661 5.53861 2.81138
1 3.65847 5.5726 4.38293
2 5.57197 5.55734 4.78123
1 5.55441 3.62965 5.18171
1 5.60022 5.57096 6.74549
2 5.57178 3.64698 7.15416
1 3.67451 3.77237 7.57081
1 5.56887 3.61456 9.13435
2 3.62595 3.64912 9.50557
1 3.6987 5.56846 9.94233
1 3.47189 3.60356 11.4338
2 3.75098 5.55932 11.926
1 5.55265 6.3107 12.3381
1 3.61387 5.55677 13.9037
2 5.55666 5.56557 14.1879
1 5.58367 3.62344 14.7314
1 5.53739 5.56787 16.2566
2 5.55437 3.62867 16.65
1 3.60505 3.65322 17.0308
1 5.48853 3.49537 18.5544
2 3.61596 3.61635 19.029
1 3.62686 5.55538 19.4085
1 3.63271 3.63271 21.0103
2 3.63324 5.5732 21.3869
1 5.49365 5.69383 21.8527
1 3.64722 5.54663 23.4009
2 5.57108 5.5487 23.7785
1 5.51329 3.61379 24.1854
1 5.56913 5.55563 25.7449
2 5.55618 3.63188 26.1554
1 3.63707 3.63066 26.5733
1 5.58394 3.67248 28.1182
2 3.61487 7.48496 0.0108069
1 3.60902 9.40575 0.41596
1 3.66438 7.48319 1.99713
2 3.66349 9.41946 2.38819
1 5.56782 9.40968 2.80162
1 3.65594 9.39774 4.379
2 5.56769 9.40256 4.77488
1 5.57422 7.48308 5.16898
1 5.56321 9.40484 6.74584
2 5.56423 7.48673 7.14626
1 3.6383 7.47337 7.53422
1 5.56102 7.49735 9.11994
2 3.63207 7.48485 9.51275
1 3.65802 9.41545 9.90233
1 3.4974 7.52425 11.4626
2 3.61859 9.4187 11.8869
1 5.55511 9.41721 12.2738
1 3.63591 9.39775 13.862
2 5.55601 9.40999 14.2585
1 5.55835 7.51044 14.7245
1 5.55186 9.42736 16.2419
2 5.54801 7.50043 16.6559
1 3.61025 7.47005 17.0346
1 5.49972 7.63427 18.5888
2 3.60821 7.49925 19.0136
1 3.58136 9.42394 19.4202
1 3.59184 7.49435 20.9762
2 3.61018 9.405 21.3889
1 5.52644 9.39149 21.7854
1 3.61884 9.41076 23.3602
2 5.5252 9.41717 23.7686
1 5.56803 7.47762 24.1765
1 5.42385 9.36974 25.7177
2 5.54759 7.47448 26.1616
1 3.62986 7.43889 26.5507
1 5.52501 7.52905 28.1471
2 3.63158 11.3308 0.00840822
1 3.62088 13.2576 0.405334
1 3.67455 11.3437 1.97996
2 3.63849 13.2552 2.38486
1 5.5585 13.2608 2.79705
1 3.63494 13.2572 4.36137
2 5.55545 13.2501 4.76686
1 5.56073 11.3279 5.16195
1 5.55799 13.2508 6.73876
2 5.56801 11.3281 7.13444
1 3.65486 11.3272 7.52749
1 5.56871 11.3414 9.11068
2 3.6643 11.3332 9.51153
1 3.64324 13.2523 9.91115
1 3.6336 11.3326 11.4888
2 3.63273 13.2507 11.8897
1 5.55637 13.243 12.2855
1 3.62967 13.2386 13.8643
2 5.55548 13.2478 14.2616
1 5.55034 11.3315 14.6613
1 5.54997 13.2532 16.2289
2 5.54211 11.341 16.6421
1 3.62479 11.3326 17.0422
1 5.5414 11.3126 18.6191
2 3.62464 11.3316 19.0227
1 3.64819 13.2389 19.4413
1 3.62625 11.3245 21.0082
2 3.62829 13.2433 21.4053
1 5.55519 13.2232 21.8124
1 3.6179 13.2512 23.3669
2 5.53252 13.2532 23.7825
1 5.57282 11.3395 24.2033
1 5.41901 13.2872 25.7315
2 5.67345 11.3286 26.1895
1 3.64208 11.323 26.5741
1 5.53661 11.3286 28.1685
2 3.62936 15.1751 0.00740655
1 3.63294 17.091 0.410416
1 3.63574 15.1714 1.9853
2 3.63557 17.0883 2.38744
1 5.557 17.0938 2.7863
1 3.63507 17.0891 4.36258
2 5.5567 17.091 4.76186
1 5.5574 15.1716 5.16232
1 5.55646 17.0913 6.73888
2 5.55709 15.1709 7.13767
1 3.63575 15.1724 7.53578
1 5.5577 15.1701 9.11246
2 3.63564 15.1699 9.50916
1 3.63738 17.0914 9.90664
1 3.63242 15.1688 11.4826
2 3.63252 17.0918 11.8736
1 5.55586 17.0912 12.2808
1 3.60983 17.0922 13.8075
2 5.55446 17.0901 14.3488
1 5.55393 15.1526 14.6345
1 6.31049 17.0885 16.1856
2 5.56238 15.2891 16.6154
1 3.6144 15.0287 17.0738
1 5.56287 15.219 18.6131
2 3.65253 15.1529 19.0267
1 3.6121 17.0929 19.4178
1 3.62488 15.1685 20.9997
2 3.53304 17.0872 21.3912
1 5.40469 17.1035 21.884
1 3.56845 17.0547 23.3953
2 5.50835 17.089 23.822
1 5.54814 15.1798 24.173
1 5.51783 17.0845 25.803
2 5.53735 15.1742 26.1641
1 3.61348 15.2009 26.5726
1 5.55588 15.1598 28.1374
2 3.63116 19.0097 0.0157335
1 3.63911 20.9267 0.416495
1 3.64416 19.0051 1.98941
2 3.659 20.9239 2.39431
1 5.56671 20.9302 2.78632
1 3.65472 20.93 4.3795
2 5.56806 20.9321 4.76534
1 5.56063 19.0105 5.1616
1 5.56095 20.9323 6.7408
2 5.55668 19.0115 7.13709
1 3.63466 19.0119 7.53482
1 5.55682 19.0134 9.11188
2 3.63321 19.0123 9.50711
1 3.63327 20.9313 9.90408
1 3.63166 19.0156 11.4807
2 3.63122 20.9319 11.8887
1 5.55481 20.9414 12.2866
1 3.63003 20.9459 13.8666
2 5.55929 20.9295 14.2643
1 5.54887 19.0274 14.6347
1 5.54411 20.9215 16.2358
2 5.55058 18.891 16.6125
1 3.58787 19.1501 17.0833
1 5.55245 18.9631 18.599
2 3.62767 19.0294 19.0285
1 3.6368 20.9427 19.4417
1 3.60914 19.0094 21.0006
2 3.62978 20.938 21.411
1 5.53926 20.9531 21.7846
1 3.63717 20.929 23.3739
2 5.67659 20.939 23.7621
1 5.41233 18.981 24.2228
1 5.61578 20.9354 25.749
2 5.53753 19.0148 26.171
1 3.62149 19.0301 26.5827
1 5.55676 19.016 28.1416
2 3.64504 22.8392 0.022142
1 3.76048 24.7312 0.446441
1 3.63943 22.8419 2.00392
2 3.64938 24.7766 2.39035
1 5.56536 24.7886 2.80262
1 3.64046 24.7773 4.35992
2 5.56418 24.7789 4.76979
1 5.56037 22.8529 5.15891
1 5.59707 24.763 6.73453
2 5.56255 22.8503 7.13698
1 3.63884 22.8615 7.53121
1 5.55625 22.857 9.11282
2 3.634 22.8518 9.50555
1 3.62186 24.7662 9.92884
1 3.62404 22.8439 11.4782
2 3.63218 24.7588 11.8931
1 5.56726 24.7824 12.2763
1 3.67268 24.6405 13.8345
2 5.56865 24.7559 14.263
1 5.5923 22.837 14.6786
1 5.54828 24.773 16.2393
2 5.55433 22.8432 16.6451
1 3.63031 22.8426 17.0463
1 5.55004 22.8713 18.6123
2 3.63212 22.8557 19.0258
1 3.63645 24.7709 19.4288
1 3.62292 22.8623 21.0093
2 3.6289 24.7751 21.4035
1 5.55725 24.7848 21.8106
1 3.62147 24.8183 23.3667
2 5.5414 24.7901 23.7896
1 5.40746 22.8965 24.2224
1 5.57508 24.7811 25.7798
2 5.5441 22.854 26.1686
1 3.6253 22.8544 26.5888
1 5.56945 22.8107 28.1333
2 7.45254 -0.226132 0.0210596
1 7.34227 1.67094 0.445063
1 7.49046 -0.230719 1.9982
2 7.47653 1.7023 2.39176
1 9.40318 1.68788 2.78138
1 7.48394 1.71273 4.37216
2 9.40476 1.70742 4.75847
1 9.40669 -0.214213 5.16237
1 9.40235 1.70948 6.73546
2 9.40754 -0.212963 7.14007
1 7.48853 -0.222067 7.53909
1 9.41132 -0.213421 9.11808
2 7.48652 -0.222514 9.5123
1 7.45889 1.69689 9.87286
1 7.4879 -0.221635 11.4864
2 7.47239 1.6969 11.8442
1 9.42714 1.65973 11.9317
1 7.33227 1.71908 13.7746
1 9.39711 -0.36864 14.7358
1 9.392 1.69431 16.5538
2 9.40199 -0.252672 16.6749
1 7.47524 -0.230208 17.042
1 9.41147 -0.24718 18.6431
2 7.48512 -0.200127 19.0169
1 7.48973 1.70065 19.3966
1 7.48057 -0.1983 20.9876
2 7.47644 1.81271 21.3793
1 9.44107 1.55262 21.8445
1 7.47269 1.75519 23.3704
2 9.39692 1.70022 23.7792
1 9.39763 -0.228801 24.196
1 9.39822 1.68802 25.7093
2 9.39631 -0.205166 26.183
1 7.47739 -0.196653 26.5881
1 9.40057 -0.222859 28.1662
2 7.60364 3.63578 -0.019019
1 7.34819 5.60095 0.461012
1 7.54687 3.62672 1.9729
2 7.47565 5.54814 2.40144
1 9.40679 5.56714 2.78304
1 7.48864 5.54389 4.37074
2 9.40656 5.55651 4.75774
1 9.40501 3.63115 5.15468
1 9.40562 5.55673 6.73162
2 9.40497 3.63387 7.12661
1 7.48704 3.64229 7.53871
1 9.41175 3.63983 9.09882
2 7.49736 3.63197 9.51009
1 7.41917 5.55851 9.92733
1 7.60444 3.59797 11.4546
2 7.3494 5.55894 11.9165
1 9.39662 5.57209 12.2986
1 7.49846 5.58462 13.8935
2 9.40709 5.65743 14.2618
1 9.40468 3.7848 14.7357
1 9.42408 5.61039 16.2672
2 9.40449 3.65214 16.658
1 7.4819 3.69694 17.071
1 9.4723 3.53854 18.5698
2 7.4867 3.74924 19.1412
1 8.23831 5.59982 19.4428
1 8.23957 3.59932 20.9932
2 7.47725 5.42666 21.2781
1 9.4739 5.72997 21.8819
1 7.4546 5.38173 23.3026
2 9.39432 5.68627 23.8023
1 9.41127 3.62922 24.1905
1 9.39918 5.54569 25.7328
2 9.40677 3.6293 26.2499
1 7.46643 3.62423 26.5314
1 9.40261 4.38113 28.1175
2 7.46218 7.49618 0.0374472
1 7.47415 9.38993 0.48429
1 7.49227 7.48174 2.03074
2 7.48726 9.41592 2.41627
1 9.40756 9.42048 2.80184
1 7.48673 9.4116 4.38117
2 9.40828 9.40398 4.7704
1 9.40516 7.47997 5.15861
1 9.40584 9.40145 6.73973
2 9.40674 7.47814 7.12923
1 7.48644 7.48483 7.53859
1 9.40866 7.47185 9.09759
2 7.49427 7.48308 9.50782
1 7.47372 9.41675 9.89681
1 7.61077 7.52114 11.4521
2 7.49298 9.41693 11.8798
1 9.41538 9.44541 12.2905
1 7.47398 9.40889 13.852
2 9.39999 9.43167 14.2568
1 9.40782 7.52953 14.6685
1 9.37994 9.42536 16.2316
2 9.40396 7.52226 16.6483
1 7.47563 7.4458 17.0668
1 9.45203 7.64192 18.5876
2 7.47641 7.37233 19.0507
1 7.46636 9.36947 19.4278
1 7.46051 7.48058 21.0293
2 7.46302 9.37998 21.4017
1 9.38983 9.33498 21.8019
1 7.42961 9.51921 23.3453
2 9.39746 9.27806 23.8016
1 10.1557 7.46975 24.203
1 9.54127 9.39243 25.7634
2 9.42353 7.4686 26.0838
1 7.45501 7.46343 26.6328
1 9.40381 7.49811 28.1656
2 7.47595 11.3281 -0.0730965
1 7.47674 13.2711 0.46889
1 7.48076 11.3347 2.00209
2 7.48058 13.2533 2.40427
1 9.40462 13.2517 2.79628
1 7.48066 13.2458 4.37155
2 9.40464 13.2478 4.76777
1 9.40642 11.3271 5.16407
1 9.40347 13.2482 6.74102
2 9.40222 11.3244 7.13738
1 7.4848 11.3288 7.53038
1 9.40188 11.3254 9.11428
2 7.48257 11.3332 9.50772
1 7.48248 13.2503 9.90892
1 7.48424 11.3317 11.4844
2 7.4804 13.2488 11.8878
1 9.40347 13.2532 12.2875
1 7.48118 13.2438 13.8621
2 9.40305 13.2542 14.264
1 9.38898 11.3368 14.6516
1 9.43303 13.2367 16.2358
2 9.37639 11.3297 16.633
1 7.4585 11.3245 17.0286
1 9.35836 11.3145 18.6129
2 7.45217 11.2871 19.0088
1 7.46061 13.1946 19.4197
1 7.47603 11.2776 20.9864
2 7.47616 13.1459 21.423
1 9.39731 13.2277 21.8105
1 7.47558 13.2464 23.3949
2 9.41816 13.2379 23.7786
1 9.33029 11.3203 24.2111
1 9.5387 13.278 25.7229
2 9.27544 11.3229 26.1934
1 7.47786 12.0827 26.6104
1 9.4175 11.33 28.1738
2 7.4786 15.1665 0.00540635
1 7.47923 17.0877 0.405068
1 7.48084 15.1857 2.00147
2 7.47852 17.0991 2.38644
1 9.40052 17.0964 2.78618
1 7.47904 17.095 4.36377
2 9.40104 17.0913 4.76181
1 9.40148 15.1699 5.16222
1 9.40167 17.0915 6.73808
2 9.40089 15.1698 7.1379
1 7.47942 15.1688 7.53487
1 9.40082 15.1704 9.11382
2 7.47912 15.1689 9.50849
1 7.47646 17.0915 9.90589
1 7.47967 15.1677 11.4813
2 7.4794 17.0914 11.8725
1 9.41642 17.0907 12.2733
1 7.50318 17.0898 13.8052
2 9.39997 17.0871 14.2705
1 9.39651 15.172 14.6743
1 9.41401 17.0867 16.262
2 9.4123 15.151 16.6527
1 7.51527 15.0029 17.0557
1 9.41337 15.1629 18.64
2 7.48306 15.1247 18.9969
1 7.51062 17.0876 19.0307
1 7.47526 15.0207 20.9335
1 9.55165 17.104 21.8856
1 7.47822 17.1075 23.7724
2 9.44688 17.0873 23.8234
1 9.40776 15.1748 24.1709
1 9.43842 17.0811 25.8016
2 9.42004 15.1674 26.1608
1 7.47907 15.1695 26.5522
1 9.40092 15.1553 28.1363
2 7.47985 19.0092 0.000540523
1 7.48919 20.9299 0.403131
1 7.47901 19.0128 1.98028
2 7.48236 20.9327 2.38178
1 9.39945 20.9343 2.78418
1 7.48321 20.9339 4.36331
2 9.40076 20.9348 4.76203
1 9.40181 19.0126 5.16066
1 9.4019 20.9336 6.73804
2 9.40259 19.0127 7.13614
1 7.47972 19.0135 7.53471
1 9.4024 19.0114 9.11097
2 7.47964 19.0151 9.5075
1 7.47845 20.9358 9.91
1 7.47956 19.0149 11.4793
2 7.47946 20.9334 11.8875
1 9.40407 20.9272 12.288
1 7.48419 20.9218 13.8602
2 9.40567 20.909 14.267
1 9.40151 19.0013 14.6745
1 9.45071 20.9321 16.2479
2 9.41995 19.02 16.6499
1 7.51553 19.1757 17.0414
1 9.41977 19.0184 18.6281
2 7.4815 19.0595 18.9666
1 7.47062 20.9884 19.3954
1 7.47345 19.1447 20.8685
2 7.47837 21.0294 21.5129
1 9.41816 20.9526 21.7823
1 7.47894 21.7215 23.3591
2 9.2812 20.9405 23.7633
1 9.54519 18.9819 24.2243
1 9.34228 20.9364 25.7534
2 9.41977 19.0134 26.1714
1 7.47912 18.993 26.558
1 9.40271 19.0162 28.1418
2 7.48351 22.8507 0.000721524
1 7.47012 24.7708 0.40884
1 7.47664 22.8521 1.98203
2 7.48221 24.7687 2.38902
1 9.40087 24.7628 2.78821
1 7.48556 24.7772 4.36814
2 9.40423 24.7784 4.76452
1 9.40027 22.8562 5.16232
1 9.40361 24.7792 6.73931
2 9.39888 22.8567 7.13721
1 7.48268 22.847 7.53817
1 9.39966 22.8571 9.11585
2 7.47826 22.8549 9.51268
1 7.48551 24.7733 9.90896
1 7.47994 22.8535 11.4892
2 7.48583 24.7752 11.8844
1 9.40881 24.7626 12.2851
1 7.48418 24.7553 13.8607
2 9.40049 24.6805 14.2577
1 9.4012 22.8128 14.6663
1 9.4043 24.7304 16.2656
2 9.41027 22.8335 16.6515
1 7.47877 22.8489 17.0399
1 9.40796 22.859 18.6192
2 7.47825 22.8856 19.0054
1 7.47845 24.805 19.4051
1 7.4786 22.9157 20.9515
2 7.48051 24.8098 21.4054
1 9.40371 24.779 21.8111
1 7.47932 24.7939 23.3924
2 9.4174 24.7863 23.7901
1 9.54734 22.8977 24.2265
1 9.39467 24.792 25.7865
2 9.41786 22.8601 26.1712
1 7.48461 22.8738 26.5546
1 9.40371 22.8531 28.1429
2 11.3401 -0.22586 0.0180803
1 11.4612 1.66971 0.4483
1 11.3158 -0.228082 2.00194
2 11.3352 1.70479 2.39251
1 13.2481 1.7167 2.79778
1 11.3247 1.71458 4.36368
2 13.249 1.71249 4.76593
1 13.2399 -0.211263 5.1553
1 13.2352 1.71345 6.73548
2 13.2407 -0.211912 7.13304
1 11.3265 -0.212787 7.54133
1 13.2605 -0.219863 9.10188
2 11.3411 -0.214385 9.51529
1 11.3678 1.7131 9.88608
1 11.3543 -0.218336 11.4879
2 11.3699 1.70564 11.8606
1 13.2904 1.70302 12.2958
1 11.4651 1.71265 13.8068
2 13.3339 1.70954 14.2907
1 13.2572 -0.213286 14.6793
1 13.2656 1.70965 16.2549
2 13.252 -0.216531 16.6509
1 11.3274 -0.223627 17.0433
1 13.2518 -0.228045 18.62
2 11.335 -0.229402 19.021
1 11.3522 1.68816 19.4281
1 11.3588 -0.235875 20.993
2 11.3196 1.68778 21.4042
1 13.2114 1.7014 21.8162
1 11.3268 1.72363 23.4043
2 13.2347 1.70323 23.8015
1 13.2391 -0.217643 24.1917
1 13.2449 1.69733 25.777
2 13.2447 -0.223146 26.1655
1 11.32 -0.209756 26.5779
1 13.2598 -0.253803 28.1347
2 11.2025 3.63051 -0.0128298
1 11.4632 5.59181 0.460405
1 11.2631 3.62862 1.97707
2 11.3377 5.55453 2.39954
1 13.2514 5.54877 2.8033
1 11.3267 5.55156 4.36805
2 13.2505 5.55762 4.76949
1 13.2498 3.63501 5.16166
1 13.2471 5.55855 6.7376
2 13.2409 3.63642 7.13441
1 11.3232 3.63444 7.52463
1 13.2342 3.68024 9.10568
2 11.3243 3.64078 9.51035
1 11.3134 5.56131 9.9186
1 11.3362 3.6323 11.4919
2 11.3202 5.55898 11.888
1 13.2498 5.55778 12.288
1 11.3259 5.57507 13.86
2 13.2488 5.55812 14.2638
1 13.2677 3.63368 14.6674
1 13.2643 5.55803 16.2387
2 13.2653 3.63856 16.6401
1 11.3503 3.64733 17.0107
1 13.2501 3.62136 18.616
2 11.3441 3.61742 19.013
1 11.3398 5.55614 19.412
1 11.3279 3.62242 20.9855
2 11.3421 5.55154 21.3903
1 13.2603 5.55817 21.7874
1 11.3914 5.39759 23.3541
2 13.2691 5.53471 23.7822
1 13.2975 3.6146 24.2009
1 13.2646 5.55469 25.7567
2 13.2521 3.62813 26.1675
1 11.3466 3.62698 26.5427
1 13.2378 3.63506 28.1357
2 11.3441 7.48926 0.0361127
1 11.3386 9.40749 0.426492
1 11.3131 7.4925 2.01101
2 11.3244 9.41349 2.39864
1 13.2463 9.40182 2.7865
1 11.3289 9.4062 4.3727
2 13.2486 9.401 4.76279
1 13.2465 7.47986 5.1612
1 13.2426 9.40127 6.7375
2 13.2442 7.47999 7.13682
1 11.3278 7.47858 7.5318
1 13.2424 7.48185 9.11483
2 11.3223 7.48005 9.51365
1 11.3207 9.40146 9.91434
1 11.3241 7.48361 11.4931
2 11.3306 9.40775 11.8906
1 13.2466 9.39979 12.2917
1 11.3256 9.40492 13.8677
2 13.2416 9.40093 14.2685
1 13.2503 7.48026 14.6632
1 13.2389 9.40114 16.2441
2 13.256 7.47669 16.6364
1 11.3418 7.48405 17.0292
1 13.2528 7.45462 18.6106
2 11.3443 7.49575 19.0151
1 11.344 9.42385 19.4175
1 11.3645 7.48818 20.9826
2 11.3105 9.41964 21.3788
1 13.2234 9.39175 21.7728
1 11.3168 9.55563 23.3238
2 13.1602 9.41288 23.7883
1 13.2291 7.4747 24.1769
1 13.2191 9.39999 25.758
2 13.2495 7.47478 26.1644
1 11.3551 7.43052 26.6354
1 13.2782 7.52028 28.1537
2 11.3274 11.3281 0.0145125
1 11.3342 13.2522 0.412158
1 11.3319 11.3328 1.99412
2 11.3243 13.2516 2.38813
1 13.2459 13.2513 2.78477
1 11.3267 13.2489 4.36514
2 13.2472 13.2464 4.76029
1 13.2457 11.3237 5.15744
1 13.2323 13.2437 6.7344
2 13.2332 11.3228 7.13319
1 11.3191 11.3222 7.53549
1 13.2352 11.3241 9.11338
2 11.3195 11.3242 9.51382
1 11.3206 13.2475 9.91315
1 11.3335 11.329 11.4885
2 11.3264 13.2481 11.8899
1 13.2463 13.2518 12.2927
1 11.321 13.2572 13.8634
2 13.2402 13.2485 14.2677
1 13.2082 11.3252 14.6397
1 13.2325 13.2458 16.2437
2 13.2167 11.3232 16.6079
1 11.2816 11.3174 17.0218
1 13.1065 11.3459 18.5429
2 11.2333 11.3355 19.0156
1 11.3091 13.2527 19.4161
1 11.2925 11.3389 20.9801
2 11.3238 13.2513 21.3957
1 13.2492 13.2576 21.8
1 11.3347 13.2401 23.366
2 13.2517 13.2565 23.7852
1 13.2718 11.3378 24.1956
1 13.2412 13.2547 25.77
2 13.2402 11.3297 26.1646
1 11.3232 11.3386 26.5824
1 13.2482 11.3236 28.1391
2 11.3257 15.1725 0.00942687
1 11.3215 17.0919 0.411199
1 11.3187 15.1708 1.98633
2 11.3194 17.0913 2.38589
1 13.2389 17.0881 2.77704
1 11.3235 17.0895 4.36219
2 13.2451 17.09 4.75855
1 13.2485 15.1693 5.16108
1 13.2496 17.0884 6.73889
2 13.2391 15.1642 7.13898
1 11.3216 15.1693 7.53786
1 13.2393 15.1698 9.11943
2 11.3204 15.1691 9.5153
1 11.3253 17.0911 9.9125
1 11.328 15.1685 11.4903
2 11.3316 17.0902 11.8894
1 13.2466 17.0874 12.2961
1 11.3214 17.0896 13.8695
2 13.2427 17.0911 14.2716
1 13.2411 15.1695 14.668
1 13.241 17.0934 16.2466
2 13.2359 15.1696 16.6416
1 11.3244 15.1662 17.0476
1 13.245 15.1854 18.6221
2 11.3301 15.1738 19.0243
1 11.3498 17.0948 19.4259
1 11.3433 15.172 21.0003
2 11.4232 17.0904 21.3978
1 13.2942 17.1068 21.8113
1 11.3854 17.0559 23.3981
2 13.2802 17.0919 23.7955
1 13.2601 15.1711 24.1939
1 13.2623 17.0994 25.768
2 13.2528 15.177 26.1674
1 11.3419 15.1992 26.5739
1 13.2503 15.1692 28.1471
2 11.3275 19.0129 0.0154298
1 11.3242 20.9339 0.410049
1 11.3202 19.0124 1.98754
2 11.3151 20.9335 2.38534
1 13.2297 20.9346 2.77629
1 11.3191 20.9345 4.36412
2 13.2342 20.9326 4.76041
1 13.2428 19.0098 5.16273
1 13.2461 20.9352 6.7369
2 13.2544 19.0121 7.13622
1 11.3258 19.0132 7.53454
1 13.2453 19.0096 9.1101
2 11.3244 19.0115 9.51195
1 11.3118 20.9299 9.91613
1 11.3324 19.0116 11.4904
2 11.3262 20.9328 11.8907
1 13.2471 20.9361 12.296
1 11.3267 20.9222 13.865
2 13.2437 20.934 14.2732
1 13.2455 19.0124 14.6706
1 13.2497 20.9345 16.2487
2 13.2513 19.0145 16.6469
1 11.3358 19.0123 17.0487
1 13.2526 19.0279 18.6241
2 11.3367 19.0169 19.0263
1 11.3317 20.9377 19.424
1 11.3533 19.0124 21.002
2 11.3272 20.9375 21.4027
1 13.2459 20.942 21.8117
1 11.3195 20.9349 23.3717
2 13.2387 20.9374 23.7857
1 13.2534 19.0185 24.1866
1 13.2441 20.9384 25.7605
2 13.2485 19.0189 26.1648
1 11.3352 19.0295 26.5826
1 13.2511 19.0114 28.146
2 11.3295 22.8543 0.0157181
1 11.3277 24.7733 0.412937
1 11.3215 22.8533 1.98804
2 11.3191 24.7706 2.38922
1 13.2405 24.7788 2.7788
1 11.3232 24.7748 4.3634
2 13.2441 24.7801 4.75681
1 13.2453 22.8563 5.15907
1 13.2246 24.7796 6.73048
2 13.2342 22.8591 7.13616
1 11.3153 22.8577 7.53357
1 13.224 22.8177 9.1118
2 11.3138 22.8518 9.51498
1 11.3284 24.7762 9.91267
1 11.3283 22.8547 11.4916
2 11.3319 24.7764 11.892
1 13.2449 24.7833 12.3148
1 11.3195 24.7611 13.8746
2 13.2407 24.7776 14.2834
1 13.2446 22.8547 14.6746
1 13.2466 24.7761 16.2535
2 13.2507 22.8549 16.6505
1 11.3354 22.851 17.05
1 13.2505 22.8576 18.6275
2 11.3282 22.855 19.0239
1 11.3292 24.7685 19.4208
1 11.3342 22.8596 21.0015
2 11.3305 24.7735 21.4016
1 13.2545 24.7653 21.8031
1 11.3383 24.8139 23.3722
2 13.2503 24.7803 23.7815
1 13.2427 22.8582 24.1823
1 13.2415 24.7742 25.7592
2 13.2463 22.8564 26.1628
1 11.3316 22.8501 26.5823
1 13.2525 22.8568 28.1441
2 15.1745 -0.215931 0.00249642
1 15.1614 1.70783 0.401465
1 15.1602 -0.211202 1.97819
2 15.1618 1.71106 2.37613
1 17.0839 1.70915 2.76508
1 15.1683 1.71363 4.35186
2 17.0894 1.71363 4.73377
1 17.0809 -0.207905 5.13863
1 17.0833 1.74144 6.66677
2 17.0832 -0.20951 7.20241
1 15.1454 -0.211069 7.50225
1 17.0846 0.541952 9.03902
2 15.2953 -0.214624 9.48416
1 15.0481 1.75457 9.94865
1 15.2352 -0.217424 11.4717
2 15.1811 1.70975 11.8946
1 17.0895 1.68267 12.3084
1 15.2045 1.70736 13.8835
2 17.109 1.70762 14.2839
1 17.0965 -0.216049 14.6807
1 17.1026 1.70835 16.2577
2 17.092 -0.219761 16.6521
1 15.1732 -0.216006 17.0477
1 17.0911 -0.226704 18.6285
2 15.1689 -0.222501 19.0243
1 15.1559 1.69667 19.424
1 15.1547 -0.220387 21.0027
2 15.0792 1.6946 21.3993
1 16.9502 1.69951 21.8778
1 15.1307 1.68038 23.4029
2 17.0616 1.68138 23.8199
1 17.084 -0.225984 24.1855
1 17.0533 1.6888 25.8018
2 17.0889 -0.226109 26.1653
1 15.1681 -0.225637 26.5595
1 17.0922 -0.216639 28.1397
2 15.1599 3.63207 0.011442
1 15.1622 5.55323 0.407613
1 15.1624 3.63247 1.98124
2 15.1637 5.55515 2.38358
1 17.0812 5.55746 2.77318
1 15.1704 5.5621 4.36502
2 17.0869 5.56513 4.75111
1 17.0908 3.6495 5.13426
1 17.0885 5.55606 6.72787
2 17.0833 3.63736 7.12653
1 15.1593 3.62736 7.53284
1 17.0667 3.68606 9.10342
2 15.1467 3.65469 9.51897
1 15.1573 5.56873 9.92447
1 15.1946 3.65077 11.5078
2 15.1796 5.56909 11.8978
1 17.0952 5.58417 12.3172
1 15.1695 5.56197 13.8701
2 17.0869 5.55925 14.2814
1 17.0891 3.63285 14.6795
1 17.0807 5.56041 16.2546
2 17.0942 3.63769 16.6521
1 15.1777 3.62765 17.0464
1 17.0909 3.63144 18.6307
2 15.1682 3.60714 19.0239
1 15.17 5.51153 19.4231
1 15.149 3.60852 21.01
2 15.1691 5.53025 21.4006
1 17.0828 5.54142 21.7925
1 15.1713 5.52915 23.3791
2 17.0711 5.45889 23.7785
1 17.0713 3.58428 24.1917
1 17.0865 5.50531 25.7851
2 17.0809 3.60347 26.1772
1 15.1623 3.62408 26.5787
1 17.0885 3.6253 28.1513
2 15.1827 7.47888 0.0112753
1 15.1873 9.40681 0.408158
1 15.1651 7.47855 1.98601
2 15.1644 9.40251 2.38192
1 17.0813 9.40315 2.77602
1 15.1654 9.40009 4.35984
2 17.0821 9.40076 4.75512
1 17.0862 7.48128 5.15455
1 17.0745 9.39788 6.73176
2 17.0834 7.47694 7.12708
1 15.1604 7.47793 7.53163
1 17.0771 7.47327 9.0955
2 15.1625 7.48285 9.51457
1 15.158 9.40138 9.91737
1 15.1705 7.48757 11.4973
2 15.1625 9.40791 11.897
1 17.0738 9.43933 12.3029
1 15.164 9.40441 13.8783
2 17.0936 9.40305 14.2722
1 17.0821 7.48552 14.6763
1 17.1065 9.40441 16.2499
2 17.0954 7.48076 16.6486
1 15.1738 7.4677 17.0397
1 17.0862 7.4816 18.6239
2 15.1669 7.38346 19.0123
1 15.111 9.25951 19.4592
1 15.1748 7.43785 21.0129
2 15.1528 9.37684 21.3992
1 17.0954 9.40687 21.4254
1 15.0308 9.34446 23.3417
1 17.0823 7.33216 24.2626
1 17.0915 9.40304 26.132
2 17.0914 7.44577 26.1968
1 15.1721 7.46633 26.5596
1 17.0942 7.4397 28.1662
2 15.1681 11.3298 0.00721815
1 15.1621 13.2498 0.406071
1 15.1602 11.3259 1.98433
2 15.1659 13.2468 2.38113
1 17.0864 13.2422 2.77485
1 15.1665 13.2457 4.35757
2 17.0875 13.2389 4.75179
1 17.0748 11.3205 5.15023
1 17.0712 13.2425 6.72825
2 17.0577 11.3209 7.125
1 15.1458 11.3216 7.52603
1 17.0419 11.3279 9.10993
2 15.1406 11.3249 9.51518
1 15.1581 13.2479 9.92064
1 15.1524 11.3273 11.4933
2 15.1661 13.2466 11.897
1 17.0858 13.2472 12.2948
1 15.1661 13.242 13.8735
2 17.0928 13.2459 14.2692
1 17.1307 11.3234 14.6452
1 17.0879 13.2457 16.2445
2 17.1233 11.3256 16.6139
1 15.1694 11.322 16.6757
1 17.2382 11.3254 18.55
1 15.1563 13.391 19.5013
1 15.1605 11.3285 21.3822
2 15.1696 13.2807 21.4375
1 17.0933 13.2711 21.8029
1 15.1745 13.3114 23.4069
2 17.0957 13.3492 23.7779
1 17.0908 11.4774 24.2592
1 17.0916 13.2976 25.7856