1725
Atoms. Timestep: 695
1 -0.294249 1.61563 0.585495
1 -0.301106 26.7932 2.34665
2 -0.227246 1.6171 2.46343
1 1.66771 1.62298 2.78148
1 -0.277952 1.61694 4.44008
2 1.65184 1.64301 4.75617
1 1.65037 -0.279694 5.12547
1 1.65168 1.65473 6.7294
2 1.71344 -0.230157 7.12718
1 -0.152851 -0.306863 7.60942
1 1.66854 -0.30182 9.1346
2 -0.288342 26.8226 9.54005
1 -0.305402 1.6033 9.90463
1 26.8658 26.8282 11.5098
2 -0.323542 1.60185 11.8903
1 1.6182 1.62913 12.2897
1 -0.330519 1.63972 13.865
2 1.6171 1.64479 14.2583
1 1.65864 -0.273196 14.6262
1 1.63114 1.65898 16.2418
2 1.64178 -0.225423 16.6248
1 26.8227 -0.286376 16.7047
1 1.77611 -0.310753 18.556
1 -0.309558 1.77817 19.5215
1 26.814 26.8166 21.3635
2 26.8026 1.63858 21.4531
1 1.57399 1.61969 21.8218
1 26.8066 1.63706 23.4263
2 1.59551 1.61337 23.8009
1 1.63104 26.8142 24.1685
1 1.63182 1.60939 25.7689
2 1.64278 26.8171 26.1347
1 -0.322624 -0.3173 26.2278
1 1.77598 -0.318417 28.0701
1 -0.25128 5.64782 0.448814
1 -0.278706 3.5867 2.36025
2 -0.296741 5.52942 2.38287
1 1.6735 5.51078 2.75207
1 -0.149899 5.56916 4.31304
2 1.72405 5.51046 4.75621
1 1.65148 3.57943 5.14778
1 1.64103 5.49931 6.72975
2 1.62325 3.57423 7.12836
1 -0.316778 3.56461 7.5245
1 1.61598 3.53797 9.10127
2 26.8248 3.52531 9.496
1 26.8115 5.44164 9.87783
1 26.8071 3.51493 11.4792
2 26.7893 5.39717 11.8803
1 1.55735 5.47557 12.2611
1 26.7785 5.49482 13.8602
2 1.51485 5.50353 14.2698
1 1.59832 3.57401 14.6649
1 1.59887 5.50347 16.2448
2 1.6309 3.57787 16.6541
1 -0.289067 3.58894 17.0666
1 1.62629 3.57499 18.6435
2 -0.300672 3.65207 19.0467
1 -0.315389 5.53552 19.4469
1 26.8248 3.60677 21.0493
2 -0.321645 5.52268 21.4265
1 1.61651 5.51199 21.8189
1 -0.324902 5.47895 23.3963
2 1.61828 5.48959 23.7892
1 1.63986 3.55434 24.1705
1 1.61695 5.48448 25.7621
2 1.64565 3.54868 26.1358
1 -0.32179 3.52104 26.234
1 1.78745 3.52929 28.0677
2 26.8399 7.52933 28.56
1 -0.318168 9.41766 0.402287
1 26.8438 7.48494 2.00084
2 -0.317044 9.40276 2.38175
1 1.61986 9.38818 2.7773
1 -0.323275 9.38059 4.35567
2 1.6179 9.37109 4.75343
1 1.65253 7.44145 5.15795
1 1.60085 9.36887 6.73011
2 1.61608 7.43104 7.13174
1 -0.321327 7.40538 7.51353
1 1.60984 7.42414 9.10641
2 26.8223 7.40602 9.47811
1 -0.310204 9.36817 9.56823
1 26.8063 7.27106 11.4071
1 1.76965 9.36275 12.3745
1 -0.333697 9.37501 14.222
2 1.63365 9.37417 14.3062
1 1.59759 7.43848 14.6743
1 1.63354 9.37639 16.2741
2 1.59236 7.43836 16.6547
1 26.8136 7.44366 17.0541
1 1.59926 7.42859 18.6379
2 -0.329373 7.45041 19.0335
1 -0.286766 9.37865 19.3987
1 26.8381 7.45003 21.0182
2 -0.284832 9.38047 21.3698
1 1.66618 9.37668 21.7852
1 -0.16307 9.3743 23.3064
2 1.70701 9.37141 23.7923
1 1.62482 7.43039 24.1868
1 1.62278 9.37524 25.7605
2 1.61247 7.42947 26.1583
1 -0.296915 7.4329 26.5691
1 1.60095 7.46039 28.1489
2 -0.313608 11.333 -0.00827302
1 -0.273115 13.2542 0.366869
1 26.8404 11.3306 1.97872
2 -0.290087 13.2554 2.33601
1 1.67486 13.2448 2.73939
1 -0.153776 13.2611 4.266
2 1.71493 13.2364 4.74927
1 1.63351 11.3057 5.1525
1 1.62649 13.2424 6.72502
2 1.59405 11.3076 7.13167
1 -0.324504 11.3348 7.51617
1 1.59768 11.3167 9.12151
2 26.8195 11.3324 9.48737
1 -0.320188 13.2951 9.89183
1 26.8207 11.4709 11.4194
2 -0.32964 13.3411 11.8974
1 1.60955 13.2608 12.2957
1 26.8172 13.2542 13.8683
2 1.61011 13.2393 14.2686
1 1.6147 11.3088 14.6723
1 1.60345 13.242 16.2466
2 1.60337 11.3115 16.6505
1 26.8163 11.3106 17.0501
1 1.60489 11.3243 18.6269
2 -0.326091 11.3146 19.0262
1 -0.327965 13.2481 19.4309
1 26.8431 11.3137 21.0032
2 -0.317918 13.2453 21.4068
1 1.61885 13.2474 21.8139
1 -0.320355 13.2482 23.3805
2 1.61673 13.2474 23.7886
1 1.63122 11.311 24.1927
1 1.61816 13.2469 25.7633
2 1.61693 11.3116 26.1692
1 -0.317041 11.3164 26.5764
1 1.62299 11.3128 28.144
2 -0.2879 15.1858 -0.0134214
1 -0.272851 17.1192 0.367598
1 26.8528 15.1833 1.96519
2 -0.288169 17.1106 2.3382
1 1.67955 17.1053 2.73637
1 -0.153526 17.0806 4.26696
2 1.71991 17.0914 4.73912
1 1.66256 15.1654 5.14502
1 1.64175 17.0808 6.72038
2 1.62169 15.1641 7.13
1 26.8328 15.1817 7.53822
1 1.62224 15.1926 9.10617
2 26.8325 15.2091 9.50829
1 -0.295583 17.1334 9.91167
1 26.8272 15.2199 11.4901
2 -0.326608 17.1341 11.8924
1 1.61385 17.1148 12.29
1 -0.330155 17.0968 13.866
2 1.60839 17.0878 14.2604
1 1.60988 15.1648 14.6641
1 1.61002 17.0717 16.2453
2 1.60868 15.1598 16.6523
1 26.8176 15.1698 17.0583
1 1.60908 15.1801 18.6297
2 26.819 15.1799 19.0319
1 -0.324952 17.1099 19.4359
1 26.8315 15.1764 21.0088
2 26.8248 17.1067 21.412
1 1.61545 17.1174 21.814
1 -0.320565 17.1222 23.3845
2 1.61596 17.123 23.7885
1 1.61617 15.1846 24.1906
1 1.63625 17.1249 25.7621
2 1.62441 15.1853 26.1655
1 -0.299729 15.1863 26.5659
1 1.63331 15.187 28.1451
2 -0.289566 19.0429 0.0234857
1 26.8342 20.958 0.395901
1 -0.286825 19.037 2.0007
2 -0.314764 20.9647 2.37719
1 1.62875 20.9552 2.7475
1 -0.315662 20.984 4.34466
2 1.62166 20.9681 4.71278
1 1.64398 19.0052 5.12139
1 1.62483 20.8368 6.64305
2 1.64665 18.9652 7.13182
1 -0.261773 19.0534 7.53284
1 1.64109 19.0473 9.11862
2 -0.275121 19.067 9.52408
1 -0.322576 20.9995 9.92368
1 26.8259 19.0547 11.4998
2 26.7968 20.9916 11.897
1 1.57405 20.9694 12.2743
1 -0.34377 20.9624 13.8805
2 1.58371 20.9633 14.2511
1 1.59569 18.9956 14.6522
1 1.59812 20.8185 16.1828
2 1.60903 18.9495 16.6621
1 26.8205 19.0139 17.0663
1 1.61353 19.0342 18.6349
2 26.8192 19.033 19.0401
1 -0.319256 20.9483 19.4475
1 26.8187 19.0387 21.0238
2 26.8196 20.9712 21.4265
1 1.61645 20.9841 21.8218
1 26.8219 21.0002 23.3957
2 1.61494 21.0022 23.7926
1 1.62768 19.0626 24.1933
1 1.63063 21.0017 25.7666
2 1.70849 19.0627 26.1651
1 -0.156708 19.0627 26.6508
1 1.6697 19.0616 28.177
2 -0.32216 22.8409 28.548
1 -0.324498 24.7113 0.470745
1 -0.311404 22.8782 1.99427
2 -0.318239 24.8372 2.40595
1 1.6224 24.8887 2.7472
1 -0.317051 24.8378 4.37485
2 1.62286 24.8995 4.71539
1 1.62636 22.9319 4.79741
1 1.64017 25.0458 6.64418
1 26.6549 22.9259 7.61744
1 1.57667 22.9307 9.45757
2 26.7781 22.9342 9.5495
1 26.8431 24.8814 9.88387
1 26.7846 22.9348 11.5159
2 -0.225299 24.8827 11.8435
1 1.66213 24.8986 12.2178
1 -0.179593 24.9101 13.7901
2 1.64703 24.9021 14.2552
1 1.61012 22.9336 14.3345
1 1.64666 25.0479 16.177
1 26.686 22.8939 17.1287
1 1.62574 22.9096 18.9867
2 -0.329291 22.8351 19.0671
1 -0.339989 24.713 19.5209
1 26.8035 22.8884 21.0687
2 26.8162 24.851 21.4503
1 1.61216 24.8621 21.816
1 -0.325328 24.8598 23.4133
2 1.61644 24.8735 23.7903
1 1.61758 22.9377 24.1959
1 1.62574 24.8788 25.7659
2 1.61566 22.9414 26.1706
1 -0.321603 22.944 26.5736
1 1.61388 22.9202 28.1483
2 3.63925 26.8154 -0.00358262
1 3.59679 1.60757 0.397759
1 3.57774 26.8167 1.96697
2 3.58447 1.60948 2.374
1 5.50214 1.59556 2.77933
1 3.58141 1.62726 4.35823
2 5.50364 1.6116 4.75654
1 5.49327 -0.32785 5.15277
1 5.49586 1.61813 6.72828
2 5.4993 26.8251 7.12513
1 3.59139 -0.306891 7.5325
1 5.50065 -0.297159 9.11255
2 3.57709 26.833 9.51502
1 3.56621 1.62711 9.91221
1 3.57409 -0.308836 11.4805
2 3.55192 1.62435 11.8861
1 5.49062 1.64398 12.2943
1 3.56069 1.6394 13.8614
2 5.49314 1.62157 14.2594
1 5.49744 -0.210513 14.7523
1 5.51115 1.61694 16.3013
2 5.52459 -0.327602 16.6876
1 3.60743 26.8381 17.0396
1 5.53704 -0.316191 18.6631
2 3.64796 26.8212 19.0442
1 3.54836 1.61347 19.4458
1 3.54334 26.8163 21.0133
2 3.456 1.61307 21.4125
1 5.32866 1.61356 21.8908
1 3.50906 1.60956 23.4158
2 5.46474 1.61098 23.823
1 5.48785 -0.33051 24.1856
1 5.47483 1.61109 25.7864
2 5.49512 -0.332603 26.1597
1 3.59472 26.8101 26.5431
1 5.51284 26.8039 28.1517
2 3.65426 3.54732 -0.00924996
1 3.56891 5.49101 0.387541
1 3.59371 3.55034 1.96183
2 3.58443 5.49227 2.35923
1 5.50962 5.47904 2.7635
1 3.60195 5.49491 4.34223
2 5.51246 5.48232 4.75247
1 5.49776 3.54694 5.15833
1 5.48997 5.48851 6.729
2 5.49175 3.55326 7.13178
1 3.55986 3.56068 7.5333
1 5.48809 3.57122 9.106
2 3.54894 3.55567 9.50609
1 3.5139 5.49116 9.88434
1 3.54022 3.55912 11.4824
2 3.52236 5.49066 11.8522
1 5.48996 5.49317 11.9376
1 3.3853 5.50436 13.7833
1 5.48602 3.45211 14.7627
1 5.45594 5.5077 16.6158
2 5.49108 3.55171 16.701
1 3.55449 3.55759 17.0666
1 5.49296 3.53574 18.6679
2 3.55589 3.55343 19.0432
1 3.54394 5.49377 19.4441
1 3.53047 3.55505 21.0161
2 3.5497 5.49534 21.4146
1 5.48585 5.49824 21.8156
1 3.55236 5.48713 23.3875
2 5.48556 5.49097 23.7879
1 5.49271 3.55156 24.1866
1 5.49836 5.49368 25.76
2 5.51662 3.55293 26.1578
1 3.60522 3.56146 26.5417
1 5.53518 3.53737 28.1398
2 3.47445 7.43428 -0.00587403
1 3.53945 9.37452 0.391736
1 3.55588 7.43644 1.96266
2 3.54757 9.37538 2.36765
1 5.47449 9.37793 2.76493
1 3.55056 9.3683 4.34744
2 5.4686 9.36854 4.75266
1 5.4964 7.42518 5.1578
1 5.45953 9.36491 6.72873
2 5.48535 7.42494 7.13233
1 3.55087 7.43249 7.53538
1 5.48495 7.42611 9.10832
2 3.54464 7.428 9.50861
1 3.54504 9.3646 9.91892
1 3.55598 7.42678 11.4846
2 3.63968 9.3669 11.8885
1 5.52163 9.36964 12.2995
1 3.59719 9.38908 13.897
2 5.5139 9.46787 14.2778
1 5.49014 7.59191 14.7576
1 5.46247 9.42565 16.279
2 5.39004 7.46707 16.6879
1 3.50795 7.4391 17.0635
1 5.4337 7.47883 18.6848
2 3.51968 7.43704 19.0465
1 3.52813 9.37979 19.4352
1 3.55203 7.43352 21.0149
2 3.5768 9.37541 21.4024
1 5.49912 9.38942 21.8064
1 3.58743 9.37765 23.3847
2 5.50489 9.37279 23.7883
1 5.46352 7.43138 24.1649
1 5.4849 9.37012 25.7645
2 5.46892 7.43056 26.1329
1 3.5158 7.42613 26.5406
1 5.33817 7.43572 28.0676
2 3.55285 11.3107 28.5475
1 3.56097 13.2462 0.383823
1 3.56887 11.3098 1.96028
2 3.58468 13.2472 2.35608
1 5.50416 13.2597 2.76735
1 3.59507 13.2426 4.34086
2 5.50848 13.2504 4.751
1 5.46933 11.3101 5.15733
1 5.47213 13.2454 6.72716
2 5.38369 11.3057 7.12536
1 3.50663 11.3045 7.53858
1 5.42688 11.3028 9.13721
2 3.51882 11.3083 9.52408
1 3.53089 13.2478 9.91973
1 3.55206 11.3077 11.4957
2 3.54655 13.2479 11.8932
1 5.47931 13.2483 12.2969
1 3.54679 13.2514 13.8679
2 5.48699 13.2689 14.2719
1 5.49451 11.3551 14.6742
1 5.47116 13.2678 16.2587
2 5.4578 11.3418 16.6539
1 3.53002 11.3329 17.05
1 5.44488 11.3242 18.6331
2 3.525 11.316 19.0323
1 3.53883 13.2539 19.438
1 3.56022 11.3176 21.0073
2 3.55363 13.2502 21.4125
1 5.48899 13.2528 21.8157
1 3.55353 13.2477 23.3877
2 5.4891 13.2465 23.7906
1 5.49802 11.3111 24.1947
1 5.47872 13.2453 25.7648
2 5.48687 11.3086 26.1686
1 3.55222 11.306 26.5704
1 5.48662 11.3256 28.143
2 3.55152 15.1853 -0.011793
1 3.57244 17.1224 0.388329
1 3.58195 15.1832 1.95931
2 3.59017 17.1211 2.35715
1 5.50995 17.128 2.76508
1 3.60316 17.1099 4.33913
2 5.51425 17.1255 4.75016
1 5.5084 15.1868 5.15588
1 5.48818 17.1177 6.72552
2 5.48803 15.183 7.12911
1 3.55613 15.1759 7.53409
1 5.48204 15.1591 9.10332
2 3.55114 15.18 9.51121
1 3.55967 17.1127 9.91442
1 3.54897 15.1814 11.4875
2 3.55005 17.1143 11.8905
1 5.48786 17.0867 12.2995
1 3.54758 17.0992 13.8647
2 5.48599 17.0982 14.2756
1 5.48582 15.1843 14.6776
1 5.48863 17.1028 16.2653
2 5.48532 15.1846 16.6613
1 3.54644 15.1764 17.0614
1 5.48545 15.188 18.6346
2 3.54662 15.1854 19.0348
1 3.54959 17.1179 19.4386
1 3.55144 15.1854 21.0115
2 3.55122 17.1203 21.4127
1 5.48726 17.1215 21.8136
1 3.55205 17.1227 23.3869
2 5.48646 17.1228 23.7893
1 5.48498 15.1838 24.1912
1 5.47839 17.1221 25.762
2 5.46726 15.1841 26.1682
1 3.55002 15.1816 26.5668
1 5.47068 15.1923 28.1542
2 3.57273 19.0642 0.00312677
1 3.56389 21.0039 0.398783
1 3.58652 19.0601 1.97033
2 3.56173 20.9957 2.37095
1 5.49183 21.0031 2.77919
1 3.55587 20.9861 4.34626
2 5.48913 21.0009 4.7546
1 5.49498 19.0643 5.15508
1 5.49647 21.0011 6.73201
2 5.49133 19.0537 7.12605
1 3.5629 19.044 7.53063
1 5.49184 19.0311 9.10462
2 3.56508 19.0507 9.51196
1 3.54107 20.9946 9.9075
1 3.54373 19.0495 11.4847
2 3.46081 20.9898 11.8833
1 5.32842 20.9657 12.3786
1 3.49783 20.9593 13.8982
2 5.46552 20.8912 14.3084
1 5.47692 19.0087 14.6855
1 5.47387 20.9365 16.3083
2 5.48783 19.0237 16.6705
1 3.5446 19.0179 17.0656
1 5.49191 19.0423 18.6396
2 3.55297 19.0529 19.0381
1 3.56002 20.9855 19.4455
1 3.55041 19.0542 21.0136
2 3.55524 20.9911 21.4182
1 5.49073 20.9821 21.8176
1 3.55315 20.999 23.3915
2 5.48798 20.9998 23.791
1 5.48927 19.0615 24.1929
1 5.47931 21.0035 25.7637
2 5.48607 19.0627 26.1713
1 3.58476 19.0647 26.577
1 5.48589 19.0664 28.1681
2 3.54434 22.9379 -0.0050425
1 3.56256 24.8761 0.395734
1 3.54996 22.9373 1.97009
2 3.55819 24.8783 2.369
1 5.49034 24.8746 2.77552
1 3.55532 24.8934 4.34311
2 5.48848 24.8817 4.75023
1 5.46667 22.9407 5.13163
1 5.49686 24.8804 6.72583
2 5.55003 22.9439 7.10539
1 3.64821 22.9367 7.55981
1 5.38716 22.9406 9.06087
2 3.49189 22.9384 9.52186
1 3.54322 24.882 9.8716
1 3.56836 22.9334 11.4981
2 3.5766 24.8898 11.8373
1 5.51319 24.9253 11.9212
1 3.47828 24.8906 13.7827
1 5.4896 22.7624 14.7608
1 5.52471 24.8589 16.6135
2 5.58215 22.8987 16.6892
1 3.70995 22.9183 17.145
1 5.54219 22.8875 18.6862
2 3.58549 22.9248 19.0758
1 3.58172 24.8727 19.4434
1 3.58155 22.9306 21.0414
2 3.5543 24.8732 21.4157
1 5.49398 24.8652 21.8148
1 3.55316 24.8758 23.3871
2 5.4873 24.8761 23.7883
1 5.48437 22.9373 24.1913
1 5.48744 24.8747 25.759
2 5.46777 22.9402 26.1712
1 3.54684 22.9439 26.5757
1 5.46936 22.9394 28.159
2 7.4193 26.7962 0.00519063
1 7.43083 1.57064 0.404659
1 7.42226 26.8007 1.98892
2 7.43294 1.58177 2.38508
1 9.36574 1.59946 2.77443
1 7.43127 1.59815 4.35779
2 9.36518 1.60084 4.74602
1 9.35246 26.8162 5.13863
1 9.34652 1.60871 6.71921
2 9.32445 26.8202 7.1116
1 7.41334 -0.305048 7.51299
1 9.32352 -0.282836 9.10238
2 7.41493 -0.199022 9.49676
1 7.41975 1.67639 9.9096
1 7.44132 -0.234393 11.5114
2 7.43578 1.66442 11.8994
1 9.37885 1.62892 12.2937
1 7.43085 1.61746 13.8713
2 9.37756 1.58733 14.2631
1 9.40937 26.8115 14.6676
1 9.36741 1.57325 16.2465
2 9.38563 26.7963 16.6481
1 7.45548 26.7788 17.0278
1 9.38196 -0.343389 18.6295
2 7.45951 26.7904 19.0028
1 7.45649 1.60971 19.0886
1 7.44007 26.653 20.9356
1 9.52934 1.60541 21.8953
1 7.43032 1.61266 23.7396
2 9.39547 1.61484 23.8272
1 9.36699 -0.326148 24.1948
1 9.39495 1.61071 25.7948
2 9.28495 -0.330203 26.1676
1 7.40554 26.8185 26.5691
1 9.3222 26.8068 28.1814
2 7.45193 3.45137 28.5459
1 7.44417 5.32304 0.470948
1 7.43633 3.49563 1.99763
2 7.43685 5.45576 2.40229
1 9.36926 5.46868 2.76617
1 7.43296 5.43723 4.37107
2 9.37023 5.45168 4.74015
1 9.37367 3.52759 5.14238
1 9.37192 5.44336 6.72333
2 9.36382 3.52714 7.12752
1 7.42593 3.5491 7.53184
1 9.36893 3.55557 9.10321
2 7.4307 3.5826 9.50551
1 7.4571 5.50073 9.88184
1 7.43809 3.57627 11.4936
2 7.45952 5.49786 11.8538
1 9.42558 5.4629 12.2373
1 7.59824 5.47361 13.7831
2 9.46772 5.46369 14.2369
1 9.39522 3.50007 14.6475
1 9.39886 5.33029 16.1678
2 9.3701 3.4583 16.6553
1 7.43342 3.57599 17.0362
1 9.36771 3.54164 18.6302
2 7.43096 3.57466 19.0041
1 7.41176 5.54208 19.4104
1 7.43295 3.71317 20.9346
2 7.4229 5.58333 21.4189
1 9.36401 5.49163 21.8179
1 7.42767 5.50268 23.3897
2 9.37204 5.48846 23.7896
1 9.37855 3.55165 24.1963
1 9.37755 5.49098 25.7648
2 9.38385 3.55367 26.1706
1 7.4491 3.53776 26.5627
1 9.37645 3.53193 28.1483
1 7.40894 9.53511 0.46029
1 7.40977 7.42018 2.31621
2 7.39864 9.39081 2.38984
1 9.31446 9.3479 2.71702
1 7.38566 9.39047 4.36699
2 9.2713 9.34477 4.7192
1 9.34628 7.36883 5.12432
1 9.34502 9.19547 6.64793
2 9.3627 7.32517 7.13372
1 7.42335 7.40986 7.53462
1 9.36897 7.42246 9.10474
2 7.42816 7.43113 9.50853
1 7.4059 9.3617 9.91344
1 7.45063 7.42884 11.4874
2 7.44404 9.36745 11.8915
1 9.37808 9.39948 12.2638
1 7.44332 9.38532 13.873
2 9.37645 9.3996 14.233
1 9.40377 7.43294 14.3219
1 9.34847 9.53994 16.1635
1 7.26332 7.47083 17.1329
1 9.36919 7.41703 18.9771
2 7.4006 7.46163 19.0604
1 7.41229 9.39303 19.4307
1 7.40044 7.46941 21.0339
2 7.42943 9.39235 21.4128
1 9.36652 9.36783 21.8121
1 7.43293 9.37426 23.3911
2 9.36881 9.36404 23.79
1 9.3923 7.42491 24.1677
1 9.36977 9.36723 25.7657
2 9.39156 7.42877 26.1345
1 7.42997 7.43131 26.2194
1 9.51773 7.41797 28.069
2 7.4221 11.4068 28.5458
1 7.40771 13.2867 0.398634
1 7.41903 11.3611 1.99177
2 7.43099 13.2784 2.37801
1 9.36339 13.2857 2.7479
1 7.43141 13.2709 4.35384
2 9.36565 13.2821 4.71494
1 9.3458 11.3156 4.80221
1 9.36456 13.417 6.64607
1 7.24992 11.3002 7.60702
1 9.32303 11.3015 9.45814
2 7.37102 11.2939 9.54489
1 7.40305 13.2219 9.90487
1 7.38789 11.3026 11.518
2 7.4214 13.2206 11.8937
1 9.37098 13.2473 12.2867
1 7.42452 13.2749 13.8636
2 9.36662 13.2802 14.2553
1 9.343 11.3659 14.6171
1 9.35982 13.2934 16.2405
2 9.34225 11.41 16.6175
1 7.3763 11.3483 17.0299
1 9.20429 11.3337 18.5488
2 7.33053 11.3241 19.0353
1 7.40899 13.2576 19.4369
1 7.41834 11.3216 21.0108
2 7.42565 13.2556 21.4137
1 9.3634 13.2582 21.8167
1 7.42541 13.2459 23.3887
2 9.36193 13.2468 23.7926
1 9.36869 11.3059 24.1951
1 9.34251 13.2459 25.767
2 9.36397 11.3058 26.1692
1 7.42413 11.3189 26.5721
1 9.35802 11.3327 28.1442
2 7.39115 15.2077 0.00370773
1 7.40031 17.1339 0.400868
1 7.41679 15.207 1.98367
2 7.43356 17.1368 2.37355
1 9.36042 17.1411 2.76779
1 7.43223 17.1441 4.34936
2 9.36819 17.1559 4.73742
1 9.36691 15.2433 5.12198
1 9.36814 17.1616 6.71832
2 9.36459 15.2838 7.13273
1 7.42532 15.1874 7.52675
1 9.36584 15.1737 9.10242
2 7.42253 15.1327 9.49909
1 7.42523 17.028 9.88518
1 7.42883 15.1274 11.4911
2 7.42982 16.9991 11.9065
1 9.37211 17.0939 12.2996
1 7.43067 17.0971 13.8733
2 9.37314 17.1281 14.2722
1 9.37397 15.2029 14.6649
1 9.36933 17.1276 16.251
2 9.36592 15.2079 16.6515
1 7.42524 15.1921 17.0603
1 9.36647 15.2083 18.6278
2 7.42557 15.1907 19.0338
1 7.42788 17.1212 19.4359
1 7.42888 15.1897 21.0117
2 7.42364 17.1227 21.4125
1 9.35699 17.1376 21.8163
1 7.4204 17.1229 23.3875
2 9.35716 17.1244 23.789
1 9.34234 15.1864 24.1943
1 9.31788 17.125 25.7636
2 9.25813 15.1852 26.1657
1 7.37984 15.1858 26.5767
1 9.30161 15.1941 28.1797
2 7.39906 19.0691 0.0098279
1 7.39723 21.0049 0.406513
1 7.42068 19.0706 1.98238
2 7.42483 21.0039 2.37972
1 9.35828 21.0034 2.77428
1 7.42824 21.0095 4.35326
2 9.37261 21.0098 4.74414
1 9.36652 19.0819 5.13737
1 9.38161 21.0076 6.72077
2 9.36009 19.0784 7.1193
1 7.42563 19.0299 7.50222
1 9.36114 19.0363 9.10304
2 7.42681 18.9217 9.46915
1 7.43387 20.8073 9.623
1 7.42976 18.8505 11.419
1 9.54246 20.9976 12.3773
1 7.43754 20.9571 14.224
2 9.40337 20.9903 14.3098
1 9.38665 19.0555 14.678
1 9.4116 20.9912 16.2754
2 9.376 19.0578 16.6562
1 7.43439 19.0419 17.0601
1 9.37012 19.0609 18.6286
2 7.4332 19.0497 19.032
1 7.45003 20.9731 19.4316
1 7.4257 19.0524 21.0116
2 7.42679 20.9758 21.413
1 9.36155 20.9931 21.8156
1 7.42371 20.9967 23.3898
2 9.36009 21.0015 23.789
1 9.35082 19.0633 24.1949
1 9.31948 21.0025 25.7644
2 9.26401 19.0634 26.1696
1 7.387 19.0641 26.5822
1 9.30481 19.0686 28.1867
2 7.39149 22.9376 0.00843371
1 7.40559 24.8696 0.406519
1 7.41511 22.9377 1.98399
2 7.4253 24.8702 2.38014
1 9.35879 24.8785 2.77389
1 7.42699 24.8734 4.35201
2 9.37016 24.8806 4.7423
1 9.41164 22.9431 5.11613
1 9.36814 24.8804 6.71327
2 9.42033 22.9469 7.08563
1 7.46995 22.944 7.17448
1 9.54391 22.9349 9.02411
1 7.4878 25.0855 9.94861
1 7.46272 23.124 11.7918
2 7.46474 25.0095 11.8954
1 9.42531 24.9001 12.2708
1 7.60349 24.9436 13.8296
2 9.47427 24.8789 14.2778
1 9.39372 22.9335 14.671
1 9.40353 24.8692 16.2467
2 9.39047 22.9319 16.6497
1 7.47246 22.9081 17.0533
1 9.38406 22.9263 18.6354
2 7.46059 22.9034 19.0353
1 7.45332 24.8231 19.4132
1 7.44023 22.895 21.015
2 7.42993 24.7805 21.4163
1 9.36501 24.8632 21.815
1 7.42627 24.8652 23.3883
2 9.36448 24.8801 23.7885
1 9.35328 22.9399 24.1941
1 9.32605 24.878 25.7622
2 9.26154 22.9407 26.17
1 7.38162 22.9401 26.5839
1 9.30286 22.9392 28.1856
2 11.2774 -0.331795 0.0296043
1 11.2995 1.60585 0.397047
1 11.2728 26.8172 1.9958
2 11.298 1.60728 2.37294
1 13.2341 1.60638 2.77085
1 11.2968 1.6075 4.3471
2 13.2271 1.59413 4.7484
1 13.2012 26.8122 5.12128
1 13.215 1.5964 6.73177
2 13.1119 26.8089 7.08729
1 11.2194 26.8134 7.50009
1 13.0426 26.8227 9.03524
2 11.192 -0.320845 9.52327
1 11.2791 1.6173 9.91914
1 11.3029 -0.31918 11.4891
2 11.3133 1.6179 11.8936
1 13.2454 1.62377 12.302
1 11.3164 1.59782 13.8677
2 13.2455 1.61301 14.2779
1 13.2534 -0.325616 14.6789
1 13.236 1.6072 16.2514
2 13.2434 -0.328785 16.6526
1 11.3148 26.814 17.0561
1 13.2447 26.8187 18.6312
2 11.3128 26.8135 19.0332
1 11.3168 1.60231 19.4347
1 11.3182 26.8198 21.0083
2 11.4006 1.60636 21.4098
1 13.2875 1.64977 21.7861
1 11.3569 1.62827 23.4171
2 13.2748 1.64982 23.7621
1 13.2633 -0.301757 23.803
1 13.2587 1.77149 25.6985
1 11.1501 26.7956 26.6578
1 13.2444 26.8095 28.5
2 11.3098 3.54557 -0.00767174
1 11.3191 5.48462 0.394535
1 11.3038 3.54317 1.96648
2 11.305 5.48139 2.3679
1 13.2385 5.47373 2.77032
1 11.3077 5.45611 4.3431
2 13.2401 5.39349 4.7464
1 13.242 3.51242 5.15725
1 13.2411 5.43548 6.75756
2 13.239 3.5223 7.14157
1 11.3007 3.52549 7.53739
1 13.241 3.54586 9.11362
2 11.3019 3.54976 9.51073
1 11.3112 5.48438 9.90749
1 11.3325 3.54857 11.4844
2 11.3399 5.48728 11.8772
1 13.2607 5.49128 12.2933
1 11.3501 5.47985 13.8617
2 13.2657 5.48618 14.2747
1 13.2405 3.54845 14.6804
1 13.2626 5.48747 16.25
2 13.2295 3.54533 16.6546
1 11.3053 3.52553 17.0577
1 13.2349 3.54441 18.6392
2 11.3038 3.52918 19.0365
1 11.3132 5.44957 19.4411
1 11.3129 3.53578 21.018
2 11.3105 5.46139 21.4237
1 13.2529 5.47655 21.8096
1 11.309 5.47634 23.3903
2 13.2499 5.50373 23.7771
1 13.2631 3.59819 24.1679
1 13.2523 5.51823 25.7613
2 13.2487 3.64194 26.1774
1 11.3155 3.57354 26.5771
1 13.2451 3.55671 28.1511
2 11.3846 7.4258 -0.00532171
1 11.283 9.36847 0.366707
1 11.3108 7.4225 1.96373
2 11.2793 9.36387 2.33224
1 13.2443 9.37072 2.42078
1 11.1397 9.33787 4.26154
1 13.2387 7.26348 5.23669
1 13.2589 9.36494 7.09474
2 13.2451 7.39829 7.16903
1 11.3047 7.39999 7.53616
1 13.2462 7.3841 9.1351
2 11.3058 7.42291 9.51155
1 11.3085 9.37082 9.90872
1 11.3192 7.4316 11.4819
2 11.3188 9.37216 11.8872
1 13.2523 9.35295 12.2983
1 11.3147 9.3854 13.8666
2 13.2527 9.36681 14.2718
1 13.2599 7.42707 14.6787
1 13.2692 9.3719 16.2455
2 13.3465 7.42851 16.6471
1 11.476 7.41296 17.1325
1 13.3005 7.40972 18.655
2 11.3363 7.33369 19.0636
1 11.3295 9.20559 19.5148
1 11.3343 7.3767 21.062
2 11.3024 9.34002 21.4437
1 13.2335 9.35755 21.7964
1 11.3001 9.332 23.4098
2 13.2283 9.34496 23.7752
1 13.2504 7.42207 24.1678
1 13.2492 9.33852 25.7598
2 13.2501 7.42812 26.1597
1 11.344 7.42615 26.5467
1 13.2651 7.43081 28.1563
2 11.2964 11.31 -0.0101317
1 11.2866 13.248 0.397321
1 11.2927 11.3087 1.96606
2 11.2985 13.2534 2.37
1 13.2389 13.2618 2.77004
1 11.2996 13.2801 4.34369
2 13.2377 13.3465 4.74543
1 13.2048 11.4747 5.21091
1 13.2544 13.3007 6.75886
2 13.3128 11.3309 7.15021
1 11.4119 11.3257 7.581
1 13.146 11.3615 9.1087
2 11.2414 11.3147 9.53411
1 11.293 13.2527 9.91548
1 11.3362 11.3124 11.508
2 11.3145 13.2494 11.8916
1 13.2526 13.2658 12.2986
1 11.3124 13.2638 13.8644
2 13.2507 13.2586 14.2721
1 13.2831 11.3136 14.6463
1 13.2594 13.2531 16.2463
2 13.2793 11.3134 16.6115
1 11.3126 11.3389 16.702
1 13.4154 11.3098 18.5436
1 11.3032 13.4138 19.5102
1 11.2927 11.3054 21.3575
2 11.3012 13.2709 21.4429
1 13.2415 13.2153 21.7793
1 11.2999 13.2626 23.4111
2 13.2425 13.2107 23.7497
1 13.2329 11.2591 24.1614
1 13.2405 13.0828 25.6869
2 13.2415 11.2158 26.1754
1 11.3021 11.2932 26.576
1 13.2406 11.2942 28.1484
2 11.2454 15.1885 0.0296278
1 11.269 17.1309 0.401255
1 11.2698 15.1935 1.99637
2 11.2952 17.1303 2.3737
1 13.238 17.1295 2.76644
1 11.3035 17.1468 4.3433
2 13.2364 17.1449 4.74502
1 13.2403 15.2266 5.15667
1 13.2191 17.1402 6.72871
2 13.241 15.2177 7.14108
1 11.3009 15.2167 7.53827
1 13.2412 15.2089 9.114
2 11.3019 15.1866 9.51308
1 11.2898 17.1184 9.91987
1 11.3135 15.1848 11.4897
2 11.3089 17.1189 11.8954
1 13.2424 17.1288 12.3049
1 11.3106 17.1285 13.8717
2 13.2464 17.1257 14.2779
1 13.2403 15.1939 14.6791
1 13.2487 17.1241 16.2545
2 13.2504 15.1889 16.6528
1 11.3099 15.2072 17.0575
1 13.2488 15.2021 18.6273
2 11.3078 15.2841 19.0284
1 11.3007 17.1644 19.4353
1 11.2962 15.235 21.0355
2 11.2976 17.1515 21.4153
1 13.2472 17.1277 21.7375
1 11.2961 17.1264 23.3838
2 13.2441 17.1144 23.6899
1 13.25 15.1605 23.7988
1 13.2329 17.1331 25.5695
1 11.1235 15.1971 26.653
1 13.1994 15.1945 28.4936
2 11.2643 19.0671 0.0311652
1 11.2787 21.0049 0.401771
1 11.273 19.0682 1.99722
2 11.2957 21.0041 2.37534
1 13.2411 21.0039 2.76676
1 11.3086 21.001 4.34358
2 13.2415 21.0026 4.74062
1 13.2271 19.0692 5.14031
1 13.2334 21.0046 6.71363
2 13.1939 19.0724 7.11774
1 11.284 19.0755 7.52235
1 13.1858 19.06 9.11232
2 11.277 19.0563 9.51293
1 11.3245 20.9986 9.91912
1 11.3148 19.0562 11.4909
2 11.4072 20.9952 11.8916
1 13.2825 20.985 12.3095
1 11.3622 20.9938 13.9059
2 13.2722 20.9945 14.2903
1 13.2582 19.0557 14.6843
1 13.2436 20.9947 16.2589
2 13.2473 19.0595 16.6562
1 11.3132 19.0559 17.0592
1 13.2482 19.0677 18.6299
2 11.308 19.082 19.0337
1 11.297 21.004 19.4312
1 11.2913 19.0785 21.0142
2 11.2978 21.0087 21.4064
1 13.246 21.0039 21.7294
1 11.2964 21.0058 23.3775
2 13.2458 21.0039 23.6824
1 13.2455 19.0624 23.761
1 13.2443 21.0043 25.5641
1 11.1293 19.0645 26.6593
1 13.2364 19.0675 28.4948
2 11.2676 22.9413 0.0307747
1 11.2836 24.877 0.402747
1 11.2727 22.9413 1.99751
2 11.2961 24.8797 2.37514
1 13.2425 24.8761 2.76825
1 11.3045 24.8804 4.34316
2 13.2388 24.8741 4.73903
1 13.257 22.9386 5.13605
1 13.2353 24.8744 6.71381
2 13.2696 22.9383 7.11134
1 11.3615 22.9452 7.49719
1 13.2827 22.9266 9.09922
2 11.4052 22.9399 9.51349
1 11.3036 24.8819 9.91235
1 11.3576 22.9357 11.4851
2 11.3337 24.8827 11.8822
1 13.2508 24.8736 12.2851
1 11.35 24.8755 13.868
2 13.2524 24.8765 14.2787
1 13.2474 22.934 14.6785
1 13.2303 24.8831 16.2509
2 13.2227 22.9402 16.6445
1 11.3058 22.9428 17.0462
1 13.2089 22.9421 18.6302
2 11.2966 22.9412 19.0336
1 11.2957 24.8799 19.4328
1 11.2905 22.942 21.0068
2 11.3018 24.8792 21.4047
1 13.2478 24.8894 21.7357
1 11.302 24.8905 23.3772
2 13.2484 24.893 23.6886
1 13.2465 22.9461 23.7603
1 13.2462 24.8752 25.5688
1 11.1292 22.9409 26.66
1 13.2429 22.9419 28.4899
2 15.2116 -0.32918 0.0299737
1 15.1837 1.60913 0.396282
1 15.2079 26.8182 1.99642
2 15.1611 1.61461 2.37384
1 17.0788 1.65204 2.75293
1 15.1633 1.61072 4.35842
2 17.0935 1.64065 4.72553
1 17.1133 26.8182 4.7988
1 17.1114 1.78214 6.65524
1 14.9972 26.8171 7.23812
1 17.2771 -0.30374 9.42581
1 15.1812 1.76843 10.0013
1 15.1622 -0.321021 11.8501
2 15.1789 1.63823 11.9363
1 17.1176 1.62684 12.3014
1 15.1808 1.64671 13.9033
2 17.1182 1.6164 14.276
1 17.0937 -0.322485 14.6809
1 17.102 1.61572 16.2504
2 17.1021 26.8217 16.6505
1 15.173 -0.328645 17.0555
1 17.108 -0.307594 18.6287
2 15.1762 26.8221 19.0328
1 15.174 1.61136 19.4365
1 15.2023 26.8241 21.005
2 15.2061 1.61759 21.4114
1 17.1221 1.62053 21.8179
1 15.2029 1.62797 23.3972
2 17.1295 1.61265 23.7946
1 17.1273 -0.32502 24.1956
1 17.1304 1.60819 25.7689
2 17.2073 -0.330176 26.1663
1 15.3445 26.8047 26.6569
1 17.166 -0.328789 28.1836
2 15.1787 3.54813 -0.00713374
1 15.1713 5.48432 0.396132
1 15.161 3.55145 1.96635
2 15.1697 5.48791 2.36682
1 17.0962 5.49325 2.75836
1 15.1688 5.48889 4.34367
2 17.0975 5.5175 4.73731
1 17.0979 3.60559 5.12647
1 17.1197 5.53041 6.72352
2 17.1213 3.65001 7.13565
1 15.1828 3.56429 7.54095
1 17.1251 3.57747 9.1096
2 15.1825 3.62226 9.51197
1 15.1942 5.48675 9.92951
1 15.1864 3.58549 11.5365
2 15.1952 5.49067 11.917
1 17.1312 5.49015 12.3038
1 15.1927 5.48922 13.8876
2 17.1298 5.49177 14.2762
1 17.1195 3.55507 14.6782
1 17.116 5.48926 16.25
2 17.0274 3.55223 16.6487
1 15.1461 3.54729 17.0594
1 17.0693 3.55827 18.6566
2 15.1592 3.54987 19.0434
1 15.1853 5.48714 19.4395
1 15.1922 3.55555 21.0129
2 15.1851 5.48968 21.4115
1 17.1153 5.50043 21.8134
1 15.1892 5.49627 23.385
2 17.1198 5.48537 23.7892
1 17.1201 3.54897 24.1955
1 17.1076 5.48628 25.764
2 17.11 3.54776 26.1694
1 15.1812 3.5638 26.5766
1 17.1081 3.54836 28.1499
2 15.1771 7.42562 6.37674e-05
1 15.2102 9.36951 0.370782
1 15.1773 7.42878 1.97231
2 15.2095 9.36784 2.33665
1 17.1642 9.35928 2.74469
1 15.3445 9.37574 4.26966
2 17.2208 9.37078 4.74791
1 17.1269 7.44459 5.14439
1 17.1592 9.36897 6.72517
2 17.1301 7.44589 7.12987
1 15.1861 7.41438 7.53784
1 17.1285 7.42349 9.10592
2 15.1891 7.35211 9.51095
1 15.1893 9.21093 9.99785
1 15.1924 7.39509 11.5334
2 15.185 9.34596 11.9319
1 17.1175 9.35776 12.2985
1 15.1895 9.33304 13.9012
2 17.1199 9.3652 14.2766
1 17.1367 7.42648 14.6788
1 17.1476 9.36981 16.2465
2 17.1458 7.43084 16.6534
1 15.2277 7.4334 17.0573
1 17.136 7.41748 18.6371
2 15.2126 7.42446 19.041
1 15.2069 9.3689 19.4268
1 15.1812 7.42513 21.0096
2 15.1592 9.3659 21.3965
1 17.0708 9.36947 21.7784
1 15.1496 9.3599 23.3776
2 17.0282 9.36882 23.791
1 17.0978 7.42723 24.1929
1 17.0966 9.3676 25.7641
2 17.0351 7.42471 26.1641
1 15.1612 7.42499 26.5707
1 17.0769 7.4134 28.1776
2 15.185 11.3049 -0.0118335
1 15.1742 13.2452 0.388389
1 15.1878 11.3063 1.96365
2 15.1773 13.2445 2.36627
1 17.1049 13.2282 2.7625
1 15.1751 13.2572 4.34564
2 17.1047 13.2404 4.74639
1 17.1662 11.3014 5.12461
1 17.1344 13.2467 6.72496
2 17.1787 11.3082 7.09261
1 15.2292 11.3158 7.17845
1 17.2955 11.2978 9.03052
1 15.1936 13.4121 9.99788
1 15.1863 11.3086 11.8504
2 15.187 13.2721 11.9306
1 17.1221 13.2409 12.3029
1 15.1888 13.2895 13.8985
2 17.1257 13.2529 14.2755
1 17.1268 11.3108 14.6689
1 17.1416 13.2518 16.2465
2 17.1544 11.3112 16.6374
1 15.241 11.311 17.0201
1 17.1621 11.3172 18.6186
2 15.2836 11.3093 19.0308
1 15.2055 13.248 19.4307
1 15.1893 11.3071 20.9991
2 15.1838 13.2424 21.4065
1 17.1202 13.2404 21.8142
1 15.1804 13.2227 23.3802
2 17.1166 13.2461 23.7905
1 17.1061 11.3089 24.1962
1 17.1264 13.2492 25.77
2 17.1183 11.3083 26.1712
1 15.1797 11.2981 26.5753
1 17.1209 11.2934 28.1452
2 15.1225 15.1845 0.0114559
1 15.1857 17.1253 0.393244
1 15.1959 15.1842 1.98663
2 15.1781 17.1251 2.36808
1 17.105 17.1264 2.76459
1 15.1668 17.121 4.34347
2 17.0885 17.1157 4.74362
1 17.1071 15.1785 5.15101
1 17.0891 17.1127 6.72154
2 17.1197 15.1813 7.12947
1 15.182 15.2127 7.54038
1 17.1222 15.1837 9.10847
2 15.1818 15.2764 9.51163
1 15.1547 17.152 9.92924
1 15.1888 15.2301 11.5264
2 15.1837 17.1367 11.9147
1 17.1256 17.1192 12.3088
1 15.1852 17.1296 13.8841
2 17.1245 17.1195 14.2811
1 17.1248 15.187 14.6801
1 17.12 17.1207 16.2549
2 17.1269 15.1849 16.6532
1 15.1884 15.1851 17.0562
1 17.1261 15.1784 18.6263
2 15.1887 15.1865 19.0303