1780
Atoms. Timestep: 407
2 26.7353 26.7619 28.246
1 -0.266212 1.6543 0.660328
1 -0.137603 26.7644 2.23486
2 26.7193 1.70377 2.60401
1 1.65768 1.52201 2.97557
1 -0.269425 1.6516 4.5472
2 1.65783 1.6899 4.96184
1 1.65799 -0.273325 5.24247
1 1.65828 1.65643 6.89015
2 1.6581 -0.272999 7.25243
1 -0.271922 26.7641 7.65439
1 1.6578 -0.273091 9.21756
2 -0.273071 26.7633 9.6019
1 26.758 1.66173 9.98489
1 -0.272933 26.76 11.5512
2 -0.273418 1.62409 11.9149
1 1.65341 1.66372 12.3279
1 -0.273058 1.79371 13.9014
2 1.70369 1.61129 14.2717
1 1.66065 26.7588 14.6565
1 1.65658 1.66365 16.215
2 1.65412 -0.270474 16.6054
1 26.7641 26.7644 16.989
1 1.65022 26.7629 18.5563
2 26.7588 -0.272758 18.938
1 -0.267482 1.65999 19.3222
1 -0.264351 -0.264045 20.8893
2 -0.272674 1.66051 21.2783
1 1.65249 1.65767 21.5325
1 26.676 1.65776 23.2083
1 1.65696 26.6744 24.0026
1 1.65793 1.65634 25.6791
2 1.6582 -0.269853 25.9481
1 -0.268146 -0.267715 26.3147
1 1.65801 -0.265731 27.9649
2 -0.269958 3.59213 28.2688
1 -0.272601 5.52117 0.656217
1 26.762 3.59536 2.21991
2 -0.269627 5.52287 2.60503
1 1.65871 5.52141 2.98892
1 -0.272077 5.52086 4.55478
2 1.65625 5.52126 4.93806
1 1.65781 3.59376 5.32539
1 1.65847 5.5209 6.88718
2 1.65266 3.59128 7.27483
1 26.7614 3.58899 7.66738
1 1.66386 3.5893 9.22184
2 -0.233712 3.59366 9.63502
1 26.758 5.52098 9.9931
1 26.7627 3.58165 11.6336
2 -0.273273 5.51121 11.9241
1 1.65275 5.52133 12.3279
1 -0.27317 5.38718 13.9025
2 1.70474 5.56745 14.2714
1 1.52436 3.58938 14.6404
1 1.66101 5.51402 16.2157
2 1.64626 3.58714 16.6179
1 26.7563 3.58907 16.9091
1 1.66014 3.59004 18.5486
2 -0.271462 3.58903 18.9189
1 26.7644 5.51915 19.3215
1 -0.267568 3.58655 20.886
2 -0.26728 5.52029 21.2707
1 1.66176 5.51715 21.662
1 26.7584 5.51438 23.2207
2 1.61945 5.55862 23.6046
1 1.66087 3.67926 24.001
1 1.66047 5.5174 25.5468
2 1.65732 3.5858 25.9291
1 -0.269969 3.58303 26.3186
1 1.65818 3.58209 27.8841
2 -0.270337 7.45136 0.271818
1 26.7646 9.38333 0.656275
1 -0.2725 7.45221 2.22057
2 -0.271479 9.38275 2.60529
1 1.65891 9.38433 2.98898
1 -0.272837 9.383 4.55439
2 1.65788 9.38296 4.93929
1 1.6578 7.45184 5.32305
1 1.65624 9.383 6.88927
2 1.65794 7.44908 7.27281
1 26.7646 7.4596 7.65686
1 1.65452 7.45766 9.22408
2 26.7646 7.45605 9.61001
1 26.7647 9.38345 9.86411
1 -0.273141 7.37 11.5411
1 1.74687 9.38296 12.3341
1 -0.273075 9.38354 14.0109
2 1.65516 9.38507 14.2634
1 1.6539 7.46085 14.6528
1 1.6511 9.38358 16.2195
2 1.65912 7.45145 16.604
1 -0.273248 7.45344 16.9869
1 1.65815 7.45328 18.553
2 -0.273412 7.45139 18.9367
1 26.7574 9.38476 19.3214
1 26.7642 7.45247 20.8869
2 26.7633 9.38469 21.2701
1 1.6517 9.38091 21.6547
1 -0.268017 9.38061 23.2198
2 1.65814 9.3872 23.6051
1 1.66559 7.45855 23.9876
1 1.65938 9.38311 25.5538
2 1.65762 7.44736 25.9375
1 -0.272888 7.45306 26.3199
1 1.65819 7.45237 27.8859
2 -0.273169 11.3147 0.274343
1 26.7637 13.2449 0.655181
1 26.7649 11.3142 2.22103
2 -0.2723 13.2447 2.60492
1 1.65319 13.2458 2.99218
1 26.7638 13.2449 4.55489
2 1.65534 13.244 4.9407
1 1.65822 11.3145 5.32261
1 1.65771 13.2457 6.88768
2 1.65601 11.3171 7.27247
1 26.7648 11.3073 7.65758
1 1.65534 11.3084 9.22396
2 -0.272959 11.312 9.61283
1 -0.273268 13.2425 9.99715
1 26.7647 11.4033 11.5421
2 -0.273045 13.2854 11.9477
1 1.65586 13.2391 12.3208
1 -0.273197 13.2441 13.8881
2 1.65625 13.2467 14.2718
1 1.65182 11.3115 14.6524
1 1.65766 13.2464 16.221
2 1.65378 11.3143 16.601
1 26.7599 11.3128 16.9948
1 1.66031 11.3147 18.5501
2 -0.235279 11.3127 18.9475
1 26.7599 13.2381 19.3217
1 26.7625 11.3141 20.8879
2 26.7616 13.2445 21.271
1 1.6504 13.2494 21.6538
1 -0.26777 13.2488 23.2197
2 1.65793 13.2476 23.6052
1 1.6583 11.3148 23.989
1 1.65771 13.2378 25.5524
2 1.65674 11.3141 25.9368
1 -0.269318 11.3147 26.3236
1 1.65152 11.3117 27.8875
2 26.7628 15.1744 28.2682
1 -0.267599 17.1132 0.649729
1 26.7645 15.1726 2.21803
2 26.7643 17.0768 2.58057
1 1.65746 17.1222 2.99174
1 26.7648 17.2438 4.56876
2 1.70315 17.0612 4.93686
1 1.66068 15.1707 5.32267
1 1.65127 17.1125 6.88025
2 1.65616 15.1773 7.27227
1 26.7649 15.1766 7.6564
1 1.65751 15.1774 9.21976
2 -0.27308 15.1728 9.60497
1 26.7647 17.1092 9.98819
1 26.7645 15.1847 11.5531
2 -0.266897 17.1111 11.9381
1 1.66216 17.1082 12.3322
1 26.7557 17.1082 13.888
2 1.61467 17.1075 14.2831
1 1.66138 15.179 14.6548
1 1.66703 17.1115 16.224
2 1.65798 15.1781 16.6031
1 -0.270198 15.1834 16.9954
1 1.66541 15.1805 18.5562
2 -0.229111 15.1297 18.9373
1 26.6349 17.1091 19.3058
1 26.7582 15.1808 20.8805
2 -0.241205 17.1067 21.296
1 1.66635 17.1194 21.6584
1 26.7558 17.1029 23.2239
2 1.6093 17.0894 23.6113
1 1.65682 15.1794 23.9973
1 1.66648 17.0231 25.5381
2 1.6546 15.135 25.9485
1 -0.272297 15.1836 26.3188
1 1.65089 15.1824 27.8887
2 -0.270598 19.0389 0.283745
1 -0.264804 20.9653 0.647702
1 -0.257609 19.0418 2.30111
2 26.7234 20.9998 2.57001
1 1.56357 20.9665 3.00618
1 -0.268293 20.8336 4.55824
2 1.70548 21.0155 4.92662
1 1.52752 19.043 5.30335
1 1.65857 20.966 6.87931
2 1.68741 19.0394 7.29486
1 -0.272797 19.0395 7.5751
1 1.65584 19.0399 9.22318
2 -0.272336 19.0393 9.58578
1 -0.273313 20.9697 9.98819
1 -0.272766 19.0397 11.5502
2 -0.271494 20.9701 11.9375
1 1.65799 20.9715 12.3228
1 -0.273196 20.9706 13.8873
2 1.65578 20.9706 14.2727
1 1.67289 19.0373 14.656
1 1.66153 20.9672 16.2246
2 1.66108 19.0387 16.6107
1 -0.273229 19.0335 17.0031
1 1.57717 19.04 18.5424
2 -0.272359 19.0878 18.9473
1 -0.269088 20.9796 19.3281
1 26.7626 19.0297 20.8815
2 -0.228793 20.9244 21.2728
1 1.66779 20.9561 21.6563
1 26.7539 20.9819 23.2143
2 1.60802 20.99 23.6102
1 1.76954 19.0401 23.8228
1 1.66624 21.0578 25.5386
1 26.6767 19.0397 26.3368
1 1.65799 19.0422 28.0142
2 -0.270933 22.9057 28.2668
1 -0.266623 24.8377 0.662232
1 -0.270008 22.8993 2.21847
2 26.719 24.7884 2.60534
1 1.65989 24.9636 2.9731
1 -0.268297 24.841 4.54828
2 1.65697 24.8037 4.96305
1 1.66619 22.901 5.32249
1 1.65731 24.8356 6.89102
2 1.65363 22.8998 7.27411
1 26.7647 22.9032 7.65645
1 1.65779 22.9016 9.22063
2 26.7648 22.9018 9.60504
1 26.7648 24.8328 9.98849
1 26.7646 22.9021 11.5536
2 -0.273345 24.8325 11.938
1 1.65796 24.8336 12.3225
1 26.7648 24.8327 13.8867
2 1.65731 24.8317 14.2712
1 1.65769 22.9018 14.6552
1 1.65905 24.834 16.2216
2 1.66144 22.9026 16.6013
1 -0.267108 22.9026 16.9858
1 1.66424 22.8943 18.5524
2 -0.245178 22.9041 18.9135
1 26.7585 24.8298 19.3283
1 26.6276 22.902 20.901
2 -0.227071 24.8791 21.2708
1 1.66492 24.84 21.6544
1 26.7631 24.8342 23.2153
2 1.65803 24.7887 23.5953
1 1.65571 22.8929 23.9982
1 1.65761 24.8463 25.5456
2 1.65862 22.9506 25.9497
1 -0.271708 22.8952 26.3187
1 1.66074 22.8932 27.8903
2 3.61758 26.7572 28.2469
1 3.58179 1.65408 0.660278
1 3.45329 -0.266393 2.23417
2 3.63284 1.70455 2.60449
1 5.52149 1.66133 2.98955
1 3.58532 1.65157 4.54842
2 5.52068 1.65512 4.94012
1 5.52076 -0.273308 5.32299
1 5.52016 1.65799 6.88698
2 5.52047 -0.273053 7.27182
1 3.58802 -0.273325 7.65488
1 5.52136 26.7637 9.22094
2 3.58895 26.7647 9.60417
1 3.58888 1.65779 9.98911
1 3.58816 -0.272847 11.5538
2 3.58771 1.65685 11.9345
1 5.52253 1.66532 12.3291
1 3.59291 1.66105 13.8838
2 5.48503 1.65542 14.2914
1 5.52786 26.7595 14.6521
1 5.64329 1.52963 16.2772
2 5.47345 26.6733 16.5874
1 3.5831 -0.269194 16.9957
1 5.51927 -0.131105 18.5614
2 3.54502 26.7223 18.9395
1 3.70887 1.66038 19.3061
1 3.58924 -0.266875 20.8833
2 3.55191 1.65706 21.3029
1 5.51254 1.66417 21.5816
1 3.68236 1.66047 23.2098
2 5.55808 1.61821 23.586
1 5.51351 26.7607 23.9869
1 5.51983 1.66027 25.5441
2 5.51967 -0.270535 25.9315
1 3.58347 -0.267894 26.3147
1 5.51139 -0.271091 27.8815
2 3.58753 3.58907 28.2676
1 3.59095 5.52115 0.654169
1 3.59174 3.59561 2.21959
2 3.59363 5.52242 2.60466
1 5.52399 5.52007 2.99793
1 3.58194 5.52055 4.5536
2 5.48093 5.52057 4.94873
1 5.52741 3.58937 5.32051
1 5.52393 5.5214 6.88902
2 5.51994 3.58881 7.2715
1 3.58863 3.58912 7.65558
1 5.52062 3.58917 9.21993
2 3.59056 3.58928 9.60603
1 3.58958 5.52074 9.98972
1 3.59148 3.58944 11.5558
2 3.58874 5.52205 11.9386
1 5.52159 5.51371 12.3227
1 3.59944 5.51542 13.891
2 5.5244 5.51752 14.2778
1 5.52707 3.58365 14.5388
1 5.51985 5.6072 16.2102
1 3.51319 3.58346 17.0038
1 5.52148 3.46981 18.721
2 3.57196 3.63914 18.9357
1 3.59292 5.52707 19.3219
1 3.59881 3.58552 20.8892
2 3.59269 5.51851 21.2788
1 5.52106 5.52132 21.53
1 3.49881 5.51796 23.2069
1 5.51917 3.49633 23.9995
1 5.52061 5.5198 25.6789
2 5.52069 3.59229 25.9288
1 3.58914 3.58903 26.3153
1 5.52011 3.59393 27.8851
2 3.58938 7.45263 28.2696
1 3.58823 9.37835 0.65622
1 3.58907 7.45173 2.22092
2 3.59058 9.38344 2.60623
1 5.52088 9.38286 2.9896
1 3.58951 9.38349 4.5541
2 5.5211 9.38294 4.93835
1 5.52737 7.4504 5.32177
1 5.52693 9.38519 6.88804
2 5.52072 7.45436 7.27054
1 3.58888 7.45154 7.65541
1 5.51451 7.44956 9.22011
2 3.5877 7.45195 9.60439
1 3.58602 9.38342 9.98803
1 3.58101 7.45302 11.5546
2 3.62781 9.3832 11.9276
1 5.52307 9.38308 12.3257
1 3.58521 9.38338 13.8791
2 5.51452 9.37558 14.2747
1 5.5214 7.44663 14.6666
1 5.51989 9.39169 16.222
2 5.52142 7.49464 16.6163
1 3.59088 7.44212 16.9873
1 5.51495 7.44808 18.5565
2 3.58632 7.45573 18.9379
1 3.59574 9.38716 19.3292
1 3.59445 7.44428 20.8904
2 3.54146 9.33904 21.2708
1 5.52032 9.52227 21.6463
1 3.58929 9.38321 23.2163
2 5.47582 9.3501 23.6112
1 5.52182 7.52172 23.9996
1 5.52709 9.37563 25.5373
2 5.52219 7.44619 25.9329
1 3.59299 7.44788 26.3177
1 5.51999 7.44407 27.8844
2 3.5422 11.2703 0.273994
1 3.71287 13.2475 0.644104
1 3.59663 11.3184 2.21415
2 3.55638 13.2437 2.62983
1 5.52222 13.2466 2.90406
1 3.59119 13.246 4.55717
2 5.52084 13.2463 4.91811
1 5.52309 11.3157 5.32057
1 5.52864 13.2431 6.88528
2 5.47966 11.3138 7.26004
1 3.58121 11.3147 7.65616
1 5.52383 11.3171 9.21198
2 3.59374 11.3144 9.6044
1 3.5896 13.2457 9.98941
1 3.58374 11.3137 11.555
2 3.58917 13.2483 11.9367
1 5.52487 13.2497 12.3259
1 3.58006 13.2416 13.8851
2 5.47196 13.1809 14.2661
1 5.51895 11.3042 14.6583
1 5.52787 13.2375 16.2211
2 5.52132 11.3155 16.6241
1 3.59101 11.3156 16.9844
1 5.51475 11.3164 18.6385
2 3.55689 11.3123 18.9131
1 3.59647 13.2335 19.3292
1 3.71268 11.3148 20.8982
2 3.54225 13.2949 21.2695
1 5.52815 13.1032 21.6476
1 3.58394 13.2403 23.2138
2 5.44738 13.3182 23.6145
1 5.6568 11.3262 23.8963
1 5.66025 13.2408 25.6488
2 5.44751 11.2359 25.9256
1 3.58387 11.321 26.3285
1 5.52682 11.4555 27.8932
2 3.54477 15.2287 0.273195
1 3.58118 17.1206 0.661875
1 3.59652 15.1667 2.21389
2 3.59385 17.0711 2.61394
1 5.5213 17.1148 2.98765
1 3.59559 17.108 4.55428
2 5.52342 17.108 4.93852
1 5.5199 15.1754 5.32224
1 5.52095 17.1081 6.88671
2 5.51919 15.1763 7.27264
1 3.58829 15.1783 7.65566
1 5.52209 15.1788 9.22367
2 3.58693 15.1769 9.60533
1 3.59676 17.1083 9.99086
1 3.59462 15.1801 11.5555
2 3.5913 17.1061 11.9469
1 5.52223 17.1026 12.2021
1 3.50129 17.1113 13.8774
1 5.64181 15.0567 14.6748
1 5.52359 17.1074 16.3434
2 5.48188 15.1751 16.6024
1 3.5857 15.1851 16.9909
1 5.51978 15.1923 18.5511
2 3.59072 15.132 18.9279
1 3.59047 17.0213 19.3253
1 3.58853 15.186 20.8774
2 3.58799 17.1139 21.2345
1 5.51726 17.118 21.6537
1 3.58563 17.2488 23.241
2 5.53433 17.063 23.5715
1 5.53849 15.1778 24.0038
1 5.65128 17.1175 25.5633
2 5.41445 15.2093 25.9166
1 3.57442 15.1747 26.3275
1 5.5326 15.0388 27.8842
2 3.58653 19.0417 28.2301
1 3.58742 20.9674 0.527045
1 3.58634 18.9515 2.20129
1 5.61074 20.9726 3.00093
1 3.59587 20.9704 4.67745
2 5.52055 20.9699 4.93102
1 5.5154 19.0424 5.31987
1 5.5135 20.9711 6.88582
2 5.52403 19.0394 7.27159
1 3.59376 19.0413 7.65645
1 5.52223 19.039 9.22388
2 3.58826 19.0396 9.60766
1 3.58856 20.9707 9.98938
1 3.5969 19.0356 11.5578
2 3.58682 20.9717 11.9387
1 5.51443 20.966 12.3222
1 3.59137 20.9611 13.8908
2 5.52438 21.0128 14.2625
1 5.51686 19.1271 14.6666
1 5.51542 20.9632 16.2134
2 5.51653 19.0358 16.6034
1 3.59159 19.0358 16.8595
1 5.60783 19.036 18.5405
1 3.58849 21.0571 19.3277
1 3.58895 19.04 21.1194
2 3.59092 20.9681 21.2392
1 5.51593 20.9621 21.6588
1 3.5886 20.8275 23.2429
2 5.56639 21.0169 23.602
1 5.38421 19.0372 23.9786
1 5.50516 20.9745 25.5485
2 5.53368 19.088 25.9582
1 3.69855 19.0438 26.2843
1 5.5238 19.04 27.8871
2 3.58632 22.899 0.278514
1 3.58208 24.8329 0.670578
1 3.58816 22.9821 2.20948
2 3.63349 24.8312 2.61493
1 5.51335 24.8217 2.99204
1 3.58392 24.8376 4.55032
2 5.51828 24.8369 4.94294
1 5.51392 22.9008 5.31729
1 5.52121 24.8335 6.88745
2 5.5213 22.9022 7.26768
1 3.58757 22.8996 7.65216
1 5.51586 22.9023 9.21774
2 3.58846 22.9026 9.60363
1 3.58943 24.8336 9.98934
1 3.58842 22.9022 11.5535
2 3.58749 24.833 11.9382
1 5.51439 24.8356 12.3222
1 3.58945 24.8349 13.8883
2 5.52244 24.8326 14.2682
1 5.52074 22.9086 14.6548
1 5.51935 24.8175 16.2185
2 5.52191 22.8937 16.6043
1 3.59026 22.9007 16.987
1 5.51942 22.8954 18.5551
2 3.59036 22.9424 18.9253
1 3.58886 24.8363 19.3221
1 3.59088 22.8974 20.876
2 3.59083 24.828 21.2717
1 5.51323 24.8307 21.6548
1 3.58716 24.8418 23.2215
2 5.51745 24.8361 23.6046
1 5.52573 22.9099 23.9887
1 5.52048 24.8351 25.5536
2 5.51665 22.9081 25.9392
1 3.58642 22.8882 26.3223
1 5.51105 22.8963 27.891
2 7.37502 -0.232488 28.2566
1 7.45843 1.65789 0.662002
1 7.59368 26.7621 2.22957
2 7.40878 1.70379 2.60526
1 9.38317 1.53786 2.97614
1 7.45788 1.6569 4.54881
2 9.38123 1.64921 4.95359
1 9.39158 26.753 5.23628
1 9.38298 1.65934 6.88225
2 9.38031 -0.269818 7.25135
1 7.45309 26.7643 7.65508
1 9.38262 -0.27324 9.2169
2 7.45389 26.765 9.60355
1 7.45174 1.65771 9.99275
1 7.44976 -0.266256 11.5536
2 7.45139 1.65676 11.9583
1 9.38141 1.65835 12.3192
1 7.4463 1.66655 13.9735
2 9.41448 1.65748 14.2471
1 9.37666 -0.265099 14.667
1 9.24271 1.65779 16.234
2 9.42428 26.7248 16.6251
1 7.45226 -0.118301 16.9757
1 9.38364 -0.269559 18.6351
2 7.45824 26.6854 18.9266
1 7.31662 1.65882 19.2222
1 7.57717 -0.265761 20.8916
2 7.43469 1.70351 21.2858
1 9.38695 1.51241 21.6438
1 7.45567 1.65875 23.2173
2 9.34441 1.73422 23.6212
1 9.5048 26.7591 23.9003
1 9.39252 1.65891 25.5466
2 9.31083 -0.202534 25.9382
1 7.45092 26.7573 26.3283
1 9.38888 26.6285 27.9789
2 7.45094 3.58786 28.27
1 7.45766 5.52083 0.655005
1 7.45486 3.5986 2.22353
2 7.45477 5.52248 2.61244
1 9.38284 5.52041 2.86444
1 7.36287 5.52023 4.54243
1 9.38298 3.50753 5.33523
1 9.38325 5.51259 7.01005
2 9.38214 3.59064 7.26667
1 7.45484 3.59519 7.65244
1 9.38229 3.59585 9.21991
2 7.45192 3.5842 9.60477
1 7.45112 5.51431 9.98778
1 7.45033 3.58744 11.557
2 7.45175 5.52323 11.9387
1 9.37557 5.5201 12.3228
1 7.44909 5.51543 13.8895
2 9.3855 5.51858 14.2675
1 9.37658 3.58422 14.6591
1 9.38623 5.52474 16.2173
2 9.44925 3.63477 16.5983
1 7.57203 3.46083 17.01
1 9.3904 3.58204 18.5538
2 7.47397 3.67535 18.9297
1 7.44774 5.53043 19.3286
1 7.4373 3.58897 20.8811
2 7.44985 5.51926 21.2833
1 9.37808 5.51913 21.6635
1 7.54018 5.52039 23.2084
2 9.42113 5.52212 23.6147
1 9.37417 3.60342 23.9883
1 9.38105 5.52152 25.5561
2 9.38384 3.59183 25.9416
1 7.44954 3.59337 26.3186
1 9.38224 3.5913 27.8889
2 7.44865 7.45193 28.2704
1 7.45386 9.37233 0.658449
1 7.45747 7.44778 2.22407
2 7.45074 9.38009 2.60934
1 9.38192 9.39044 2.99589
1 7.45719 9.38304 4.55817
2 9.38176 9.42229 4.98279
1 9.38361 7.53487 5.32622
1 9.38291 9.26161 6.92218
2 9.38277 7.39993 7.24106
1 7.45854 7.45831 7.65914
1 9.38328 7.58671 9.23267
2 7.40664 7.40761 9.60394
1 7.59157 9.3848 9.96722
1 7.45723 7.45587 11.547
2 7.42203 9.38255 11.9587
1 9.38337 9.38354 12.2484
1 7.45392 9.38221 13.8901
2 9.37884 9.38113 14.2709
1 9.38179 7.45549 14.6511
1 9.40193 9.39074 16.3035
2 9.38211 7.42524 16.5815
1 7.45319 7.45182 16.9926
1 9.3821 7.60636 18.5698
2 7.40945 7.41133 18.9344
1 7.5983 9.39166 19.3133
1 7.45294 7.44097 20.883
2 7.46233 9.30163 21.2779
1 9.38666 9.39611 21.5805
1 7.44924 9.50423 23.2313
2 9.42851 9.33503 23.585
1 9.37772 7.44594 23.9868
1 9.37556 9.38299 25.5439
2 9.38165 7.4517 25.9396
1 7.44869 7.44514 26.3191
1 9.38329 7.45129 27.8881
2 7.49335 11.2375 0.278606
1 7.32052 13.2438 0.548808
1 7.44666 11.3225 2.2145
2 7.4809 13.2463 2.6221
1 9.37834 13.2378 2.99135
1 7.45382 13.2385 4.55934
2 9.38879 13.2462 4.94596
1 9.38293 11.3214 5.20167
1 9.38597 13.3353 6.87389
1 7.3673 11.3071 7.67036
1 9.38226 11.2006 9.38542
2 7.43409 11.3637 9.59562
1 7.44699 13.2555 9.98547
1 7.45935 11.307 11.5476
2 7.45275 13.2147 11.9145
1 9.37925 13.2514 12.3278
1 7.45183 13.4005 13.9026
2 9.42367 13.2038 14.2669
1 9.39839 11.3052 14.6588
1 9.3919 13.2448 16.2131
2 9.35998 11.3483 16.598
1 7.43908 11.308 16.9881
1 9.27411 11.1906 18.5258
2 7.42305 11.3663 18.9268
1 7.44161 13.2492 19.3313
1 7.32211 11.3133 20.9882
2 7.49392 13.3234 21.2663
1 9.37552 13.2373 21.6602
1 7.44976 13.1103 23.3192
2 9.4646 13.2895 23.5853
1 9.25704 11.3147 23.9792
1 9.25203 13.2432 25.5605
2 9.45995 11.2723 25.9538
1 7.44906 11.4567 26.2219
1 9.37973 11.3207 27.8802
2 7.49774 15.221 0.330833
1 7.45411 17.1181 0.574336
1 7.44445 15.1706 2.22331
2 7.44993 17.1095 2.58815
1 9.3806 17.1074 2.98757
1 7.45211 17.1082 4.55083
2 9.38276 17.104 4.93807
1 9.38566 15.1735 5.3302
1 9.38943 17.1145 6.88775
2 9.34479 15.2153 7.27241
1 7.44628 15.1701 7.65869
1 9.38501 15.1765 9.2145
2 7.45951 15.1802 9.62397
1 7.44444 17.1065 9.99186
1 7.44407 15.1819 11.6371
2 7.45236 17.1437 11.9367
1 9.3904 17.1016 12.3193
1 7.56382 16.9874 13.8639
2 9.41456 17.1594 14.2496
1 9.23458 15.1821 14.6446
1 9.50412 17.1034 16.2287
2 9.36654 15.1296 16.6297
1 7.44145 15.1814 16.906
1 9.37965 15.1768 18.5526
2 7.44904 15.1797 18.9162
1 7.44138 17.1103 19.3206
1 7.4536 15.1906 20.8841
2 7.45131 17.1117 21.2885
1 9.37915 17.1083 21.6528
1 7.45657 17.1052 23.2995
2 9.4132 17.1097 23.5825
1 9.36686 15.1807 24.0011
1 9.24094 17.1074 25.5712
2 9.48902 15.1759 25.9313
1 7.44938 15.184 26.2763
1 9.37431 15.1761 27.8677
2 7.45137 19.0714 0.297101
1 7.44832 20.9701 0.656332
1 7.44564 19.0401 2.22662
2 7.49278 20.9719 2.59824
1 9.39042 20.9698 2.9899
1 7.44875 20.9713 4.54621
2 9.37841 20.9708 4.93844
1 9.38314 19.0394 5.32222
1 9.38289 20.9716 6.88824
2 9.38369 19.0418 7.27131
1 7.45246 19.04 7.65599
1 9.3838 19.0395 9.21993
2 7.45636 19.0417 9.60123
1 7.45847 20.9757 9.99449
1 7.44408 19.0375 11.5497
2 7.40634 20.9261 11.9381
1 9.38271 21.1059 12.3079
1 7.45466 20.9719 13.8822
2 9.38191 20.9409 14.2938
1 9.39465 19.0406 14.667
1 9.38228 20.9781 16.2245
2 9.32808 19.0817 16.6084
1 7.4383 19.0372 16.9957
1 9.38803 19.0347 18.5481
2 7.48945 19.04 18.9487
1 7.44654 20.9681 19.321
1 7.45095 19.0383 20.8885
2 7.45198 20.9674 21.2704
1 9.3832 20.968 21.6532
1 7.45871 20.9758 23.2201
2 9.38562 20.967 23.6003
1 9.37913 19.0346 23.9927
1 9.37829 20.9604 25.5494
2 9.42675 19.0824 25.9374
1 7.45939 18.898 26.3108
1 9.37983 19.0334 27.882
2 7.40813 22.8592 28.2699
1 7.58066 24.8358 0.650439
1 7.45115 22.9008 2.21574
2 7.37904 24.7914 2.62342
1 9.39176 24.9677 2.89656
1 7.45312 24.8411 4.54791
2 9.34371 24.8004 4.96437
1 9.39015 22.9006 5.32577
1 9.38276 24.8345 6.89162
2 9.37969 22.9009 7.29285
1 7.45362 22.9028 7.65301
1 9.38267 22.9023 9.3014
2 7.42 22.9026 9.58174
1 7.45803 24.83 9.99541
1 7.58699 22.9023 11.5681
2 7.40585 24.8802 11.9381
1 9.38314 24.6986 12.3085
1 7.45588 24.8268 13.8806
2 9.38179 24.8663 14.2942
1 9.38325 22.9025 14.5748
1 9.38404 24.829 16.2252
2 9.38304 22.9027 16.585
1 7.45322 22.9021 16.9884
1 9.38427 22.9034 18.5504
2 7.45313 22.8992 18.9369
1 7.46132 24.8243 19.3311
1 7.45047 22.8952 20.8894
2 7.40279 24.7892 21.2721
1 9.3895 24.9813 21.6448
1 7.44562 24.8382 23.2137
2 9.30844 24.764 23.6165
1 9.39013 22.9011 23.993
1 9.53767 24.8401 25.6506
2 9.32299 22.8224 25.9162
1 7.44718 22.9107 26.3263
1 9.37645 23.0311 27.8958
2 11.3843 -0.199452 28.2579
1 11.3092 1.66332 0.663418
1 11.1784 26.7555 2.23288
2 11.3578 1.70845 2.60644
1 13.2501 1.66204 2.99371
1 11.3037 1.64706 4.54954
2 13.1963 1.654 4.92855
1 13.2577 -0.195165 5.33713
1 13.2517 1.65919 6.87295
2 13.1943 -0.25825 7.26681
1 11.3057 -0.267902 7.65441
1 13.2477 26.7586 9.2183
2 11.3125 26.7638 9.60369
1 11.3156 1.65736 9.98814
1 11.317 -0.267078 11.5533
2 11.3163 1.65997 11.9358
1 13.2484 1.66405 12.3209
1 11.3192 1.65752 13.8846
2 13.2462 1.65744 14.2719
1 13.2447 26.7641 14.6581
1 13.246 1.65619 16.2211
2 13.2497 -0.273001 16.6225
1 11.3208 26.7624 16.9774
1 13.2476 -0.273012 18.6411
2 11.3161 -0.271358 18.878
1 11.3156 1.63795 19.3439
1 11.3159 26.7639 21.024
2 11.3148 1.79085 21.2648
1 13.2452 1.51443 21.6465
1 11.3092 1.52274 23.2206
2 13.2375 1.68786 23.6228
1 13.1186 26.7665 23.8951
1 13.2421 1.66088 25.5434
2 13.3268 -0.21297 25.9495
1 11.3105 26.6137 26.2175
1 13.2485 26.7595 27.8812
2 11.3128 3.59134 0.274667
1 11.3075 5.52108 0.656926
1 11.3102 3.59962 2.22459
2 11.3102 5.5207 2.61184
1 13.2406 5.51513 3.00383
1 11.3943 5.51987 4.54303
2 13.243 5.56568 4.94987
1 13.3622 3.59703 5.30923
1 13.2517 5.51638 6.88588
2 13.2136 3.58204 7.29807
1 11.3068 3.59479 7.65515
1 13.2503 3.59503 9.22642
2 11.3118 3.58418 9.60626
1 11.3178 5.51419 9.98608
1 11.3205 3.59053 11.5557
2 11.2736 5.52086 11.9282
1 13.1558 5.52183 12.3339
1 11.3169 5.51958 13.8795
2 13.2483 5.52442 14.2634
1 13.2519 3.5926 14.6523
1 13.2527 5.51518 16.2196
2 13.2461 3.58654 16.6035
1 11.3245 3.59086 16.9898
1 13.2465 3.58855 18.5556
2 11.3139 3.58222 18.9357
1 11.316 5.5121 19.3194
1 11.3141 3.61514 20.8831
2 11.3067 5.52551 21.2716
1 13.2425 5.51708 21.6606
1 11.3162 5.52347 23.2196
2 13.2052 5.56804 23.6042
1 13.3829 3.59899 23.976
1 13.2523 5.51815 25.5483
2 13.2097 3.59222 25.961
1 11.3091 3.58905 26.3238
1 13.2433 3.58726 27.8896
2 11.3172 7.45183 0.272692
1 11.313 9.38378 0.656144
1 11.3114 7.44872 2.22463
2 11.3141 9.38228 2.60513
1 13.2495 9.39533 2.99539
1 11.3034 9.37935 4.55754
2 13.1993 9.34234 4.93822
1 13.2356 7.45085 5.32211
1 13.2468 9.38256 6.8822
2 13.2485 7.45462 7.27382
1 11.3093 7.45867 7.65782
1 13.2547 7.44379 9.22293
2 11.3593 7.40797 9.6034
1 11.175 9.38532 9.96852
1 11.3159 7.45352 11.548
2 11.3463 9.38027 11.9621
1 13.2531 9.38381 12.3251
1 11.3147 9.39211 13.8969
2 13.2512 9.38517 14.2814
1 13.252 7.45131 14.6592
1 13.2436 9.29539 16.207
2 13.2432 7.41733 16.6105
1 11.3114 7.46367 16.9921
1 13.2491 7.44813 18.5529
2 11.3598 7.38901 18.9333
1 11.1942 9.2679 19.3395
1 11.3078 7.44594 20.8879
2 11.3482 9.38249 21.2703
1 13.248 9.39963 21.6554
1 11.3179 9.3873 23.2181
2 13.247 9.38245 23.6083
1 13.2434 7.45766 23.9888
1 13.2461 9.38391 25.554
2 13.2473 7.45165 25.9387
1 11.3147 7.45204 26.3208
1 13.2468 7.45038 27.8871
2 11.3145 11.3165 0.276516
1 11.3138 13.2466 0.654654
1 11.3194 11.3163 2.22364
2 11.2745 13.2447 2.59478
1 13.1623 13.2416 3.00598
1 11.3196 13.2475 4.55172
2 13.2294 13.2983 4.94333
1 13.388 11.3218 5.31019
1 13.2449 13.1514 6.871
2 13.2547 11.2769 7.29119
1 11.3928 11.3096 7.67248
1 13.2377 11.3172 9.21649
2 11.3282 11.3655 9.6021
1 11.3246 13.2566 9.98532
1 11.3069 11.3118 11.5526
2 11.3102 13.2497 11.9379
1 13.2411 13.2404 12.3232
1 11.322 13.2349 13.8932
2 13.2485 13.2422 14.2773
1 13.2411 11.3137 14.5322
1 13.2421 13.3162 16.2074
1 11.2328 11.313 16.9109
1 13.2897 11.3075 18.6336
1 11.3194 13.3159 19.333
1 11.3164 11.3121 21.0064
2 11.2754 13.24 21.253
1 13.1547 13.2407 21.6636
1 11.3297 13.2423 23.2088
2 13.2506 13.2491 23.595
1 13.2523 11.3179 23.9831
1 13.2538 13.2458 25.5505
2 13.2474 11.3154 25.9356
1 11.3268 11.3127 26.3248
1 13.2398 11.3096 27.8876
2 11.3098 15.1769 0.274913
1 11.3142 17.1081 0.655489
1 11.3245 15.1744 2.22378
2 11.312 17.1109 2.60588
1 13.2397 17.0936 2.98928
1 11.317 17.1027 4.55706
2 13.246 17.1074 4.94623
1 13.2437 15.1852 5.19878
1 13.247 17.1978 6.87662
1 11.2238 15.1736 7.66811
1 13.239 15.1765 9.34464
2 11.3136 15.1804 9.59659
1 11.3212 17.1054 9.98925
1 11.3234 15.1796 11.5531
2 11.3112 17.1067 11.9551
1 13.2488 17.1118 12.3233
1 11.3197 17.1084 13.9714
2 13.2353 17.0557 14.2542
1 13.2378 15.1762 14.6686
1 13.1163 17.1166 16.3148
2 13.2922 15.1437 16.5966
1 11.3211 15.3118 16.9765
1 13.2372 15.3136 18.5693
2 11.2683 15.1454 18.949
1 11.4462 17.1151 19.2214
1 11.3266 15.1789 20.8757
2 11.2851 17.1037 21.2813
1 13.2478 17.0991 21.5677
1 11.321 17.1083 23.22
2 13.2484 17.1095 23.5829
1 13.2527 15.1754 23.9848
1 13.2421 17.0954 25.5483
2 13.2493 15.1741 25.937
1 11.3318 15.1762 26.3229
1 13.2378 15.1822 27.8878
2 11.3133 19.0381 0.273743
1 11.3195 20.9578 0.661494
1 11.3134 19.0384 2.22168
2 11.3118 20.9689 2.60892
1 13.246 20.976 2.98474
1 11.316 20.978 4.5557
2 13.246 20.9263 4.92684
1 13.2454 19.0293 5.33034
1 13.2412 20.9774 6.87889
2 13.246 19.0826 7.28173
1 11.3165 19.0331 7.65546
1 13.2455 19.0384 9.22341
2 11.3127 19.0398 9.6044
1 11.3095 20.9749 9.99534
1 11.315 19.0314 11.5544
2 11.3608 20.923 11.9373
1 13.2548 20.9621 12.3289
1 11.3048 20.9795 13.8803
2 13.1977 21.0201 14.2691
1 13.3756 19.0329 14.6466
1 13.2538 20.9803 16.2111
2 13.2537 19.1205 16.6143
1 11.3114 18.8969 16.9796
1 13.2463 18.9012 18.5653
2 11.2722 19.1159 18.9568
1 11.3125 20.9821 19.3219
1 11.3208 19.0301 20.8817
2 11.3145 20.9632 21.2709
1 13.2477 20.9787 21.6602
1 11.3102 20.9745 23.216
2 13.2072 20.9652 23.6076
1 13.2507 19.032 23.9863
1 13.385 20.8502 25.5334
2 13.1863 18.9723 25.9387
1 11.3094 19.0346 26.3234
1 13.2355 19.0447 27.8893
2 11.3506 22.8159 28.261
1 11.1912 24.8316 0.55107
1 11.3208 22.9086 2.20941
2 11.3916 24.7912 2.62341
1 13.2561 24.8338 2.86491
1 11.2158 24.8377 4.53334
1 13.2562 22.8159 5.33518
1 13.3964 24.8338 7.04736
2 13.1771 22.8853 7.25774
1 11.301 22.8977 7.6526
1 13.2432 22.9082 9.22092
2 11.3467 22.9031 9.58188
1 11.3078 24.8301 9.99553
1 11.1803 22.9015 11.5686
2 11.3608 24.8794 11.9377
1 13.2527 24.8362 12.3225
1 11.3099 24.8281 13.881
2 13.2462 24.8343 14.2724
1 13.2437 22.91 14.6551
1 13.2452 24.8357 16.2218
2 13.2446 22.9055 16.6054
1 11.3136 22.9027 16.9881
1 13.2451 22.9038 18.5541
2 11.3147 22.908 18.9354
1 11.3127 24.8544 19.3443
1 11.3165 22.8794 20.8878
2 11.3123 24.7055 21.2755
1 13.2314 24.9735 21.6504
1 11.3174 24.9655 23.3182
2 13.336 24.7653 23.6333
1 13.2412 22.8924 23.8737
1 13.1296 24.9647 25.5237
1 11.1897 23.0182 26.3502
1 13.2491 22.9066 28.0036
2 15.1801 26.7629 0.274413
1 15.1823 1.66683 0.660978
1 15.1758 26.7489 2.22434
2 15.1369 1.58181 2.58648
1 17.1092 1.79637 2.97578
1 15.1787 1.78735 4.56894
2 17.1546 1.62335 4.94314
1 17.1033 -0.202797 5.34262
1 17.1012 1.67703 6.87353
2 17.1082 -0.178427 7.28033
1 15.1722 26.608 7.62619
1 17.1083 26.7533 9.2142
2 15.1765 -0.23823 9.62362
1 15.1782 1.66634 9.99844
1 15.1765 26.7558 11.5552
2 15.177 1.62096 11.9508
1 17.1067 1.66434 12.3209
1 15.177 1.66057 13.8887
2 17.1087 1.65754 14.2709
1 17.1082 -0.27334 14.6555
1 17.1082 1.65781 16.2194
2 17.1109 -0.270922 16.6033
1 15.1761 -0.273168 16.9847
1 17.116 26.7597 18.5545
2 15.2103 26.7634 18.9096
1 15.1689 1.65568 19.3246
1 15.0533 26.7598 20.8978
2 15.2248 1.66995 21.2433
1 17.1163 1.66666 21.6558
1 15.1749 1.79097 23.2279
2 17.1215 1.607 23.5795
1 17.1236 26.7597 23.9916
1 17.2422 1.66321 25.5644
2 17.0613 26.7206 25.9363
1 15.1853 -0.26905 26.3244
1 17.1067 -0.265992 27.8815
2 15.1447 3.5883 28.2359
1 15.1851 5.50917 0.660634
1 15.3098 3.58806 2.31869
2 15.1273 5.59333 2.58931
1 17.0972 5.37755 2.98159
1 15.184 5.37858 4.56465
2 17.1515 5.59122 4.95867
1 16.9758 3.59608 5.22132
1 17.0998 5.51118 6.88525
2 17.1449 3.58628 7.28651
1 15.1787 3.59779 7.57171
1 17.0963 3.59495 9.22444
2 15.1755 3.59175 9.59343
1 15.1769 5.51876 9.86334
1 15.1772 3.50135 11.5391
1 17.1971 5.52032 12.3337
1 15.1769 5.52071 14.0119
2 17.1055 5.51842 14.2617
1 17.1022 3.59132 14.6521
1 17.1028 5.51606 16.2185
2 17.1108 3.58563 16.605
1 15.1773 3.59015 16.9906
1 17.1094 3.59338 18.5579
2 15.176 3.5868 18.9546
1 15.1766 5.51276 19.3171
1 15.1863 3.59509 20.9695
2 15.1388 5.55152 21.2386
1 17.0154 5.51689 21.6733
1 15.1845 5.38186 23.2245
2 17.1578 5.56617 23.5933
1 16.9804 3.58862 23.9762
1 17.1067 5.52131 25.5457
2 17.0921 3.63971 25.9849
1 15.1713 3.59006 26.2404
1 17.1038 3.58224 27.9671
2 15.1755 7.45201 28.266
1 15.1749 9.38007 0.650801
1 15.1762 7.45561 2.2169
2 15.1771 9.33679 2.58617
1 17.103 9.41174 3.00231
1 15.1757 9.52894 4.57044
2 17.108 9.27627 4.92955
1 17.1107 7.44465 5.32719
1 17.1083 9.39279 6.86778
2 17.1074 7.45672 7.2778
1 15.1785 7.44599 7.65642
1 17.1058 7.44578 9.22343
2 15.1792 7.44732 9.61252
1 15.1758 9.37497 9.9963
1 15.177 7.53973 11.5421
2 15.1801 9.4213 11.9494
1 17.1065 9.3753 12.3251
1 15.1775 9.38641 13.8918
2 17.1092 9.38133 14.2888
1 17.1027 7.45034 14.649
1 17.1029 9.38258 16.3038
2 17.1108 7.42164 16.5801
1 15.1802 7.46344 16.9921
1 17.1112 7.58914 18.5737
2 15.1346 7.41003 18.935
1 15.3082 9.40015 19.3063
1 15.1897 7.45226 20.8779
2 15.1514 9.34319 21.3066
1 17.1086 9.38316 21.5707
1 15.1805 9.3864 23.2259
2 17.1065 9.38448 23.5827
1 17.117 7.45605 23.9834
1 17.1098 9.37762 25.5476
2 17.1037 7.45097 25.9343
1 15.1755 7.45129 26.3208
1 17.0954 7.45232 27.8839
2 15.1238 11.2972 0.322002
1 15.3002 13.2477 0.496169
1 15.1932 11.199 2.25435
1 17.1152 13.2406 2.99506
1 15.1698 13.1275 4.71791
2 17.0534 13.3078 4.91367
1 17.1106 11.3176 5.25484
1 17.1046 13.2381 6.94577
2 17.1112 11.2796 7.30922
1 15.1843 11.3297 7.58182
1 17.1079 11.4493 9.24286
2 15.1261 11.2616 9.58808
1 15.3085 13.2467 9.96704
1 15.1816 11.3259 11.5453
2 15.1484 13.2486 11.9625
1 17.1087 13.2462 12.2455
1 15.1776 13.2413 13.8945
2 17.1081 13.2458 14.2686
1 17.1067 11.316 14.6417
1 17.1072 13.249 16.3008
2 17.1458 11.3156 16.536
1 15.2828 11.3141 17.0218
1 17.1015 11.3158 18.603
2 15.0945 11.3387 18.9439
1 15.2866 13.2371 19.1487
1 15.1835 11.2238 20.8627
1 17.2268 13.2461 21.6187
1 15.1795 13.2461 23.3435
2 17.1062 13.2487 23.5691
1 17.1013 11.3188 23.9822
1 17.1 13.2381 25.6211
2 17.1103 11.2809 25.918
1 15.1805 11.3229 26.3309
1 17.1086 11.4552 27.9142
2 15.1214 15.1952 0.277033
1 15.1926 17.1049 0.664465
1 15.1908 15.2634 2.20492
2 15.1396 17.1479 2.60967
1 17.026 17.1026 3.01668
1 15.1648 17.1011 4.55406
2 17.034 17.1187 4.93752
1 17.254 15.1865 5.28906
1 17.1132 17.1058 6.87882
2 17.1189 15.205 7.25728
1 15.2651 15.1735 7.67305
1 17.1047 15.0408 9.22573
2 15.1272 15.2198 9.59379
1 15.1697 17.113 9.98193
1 15.1762 15.1688 11.543
2 15.1814 17.0764 11.912
1 17.0996 17.1129 12.3291
1 15.1783 17.2429 13.9008
2 17.1554 17.0666 14.2696
1 17.114 15.1688 14.6503