1882
Atoms. Timestep: 583
2 26.7582 26.8082 28.3665
1 -0.26446 1.64871 0.58007
1 26.7919 -0.310722 2.12631
2 -0.313934 1.62207 2.51786
1 1.59714 1.67997 2.93131
1 -0.319946 1.62054 4.47701
2 1.61904 1.62372 4.86606
1 1.62279 -0.314289 5.26093
1 1.56898 1.645 6.8057
2 1.67845 -0.293957 7.20755
1 -0.31516 26.8008 7.61369
1 1.59441 26.6811 9.17015
2 26.7737 -0.275605 9.57083
1 26.8023 1.62729 9.96116
1 26.7986 26.8026 11.5252
2 -0.312121 1.61691 11.9201
1 1.60142 1.67309 12.3394
1 26.8007 1.62131 13.8809
2 1.58161 1.66003 14.2721
1 1.73302 26.804 14.6582
1 1.6345 1.62457 16.2244
2 1.6488 -0.26427 16.6689
1 26.805 26.7961 17.0114
1 1.62104 26.7986 18.6444
2 26.7763 -0.283732 18.9755
1 -0.309377 1.61862 19.3681
1 -0.188364 26.7983 20.9204
2 26.7706 1.65065 21.349
1 1.64508 1.48189 21.6852
1 26.8035 2.19212 23.1743
2 1.60361 1.63021 23.6756
1 1.69103 26.7931 24.016
1 1.55534 1.64124 25.6115
2 1.66788 26.7616 26.0106
1 26.7932 -0.25896 26.425
1 1.576 -0.270437 27.9432
2 26.8067 3.55765 28.358
1 26.8076 5.48111 0.543321
1 -0.317362 3.56031 2.1203
2 -0.31332 5.52224 2.48001
1 1.64274 5.44172 2.93367
1 -0.311058 5.62749 4.48795
2 1.65966 5.45646 4.86899
1 1.6229 3.55827 5.26056
1 1.61461 5.50052 6.82215
2 1.62107 3.55938 7.21934
1 -0.312549 3.55887 7.61233
1 1.61965 3.56193 9.17723
2 26.8069 3.5629 9.56801
1 26.7885 5.50326 9.96944
1 -0.310056 3.54776 11.5242
2 -0.262943 5.41924 11.909
1 1.62482 5.49849 12.3206
1 26.806 5.62846 13.8873
2 1.66279 5.46161 14.2711
1 1.61876 3.55874 14.6627
1 1.67436 5.47631 16.2063
2 1.6206 3.56075 16.6229
1 26.8081 3.54619 17.0127
1 1.62333 3.55944 18.574
2 -0.311517 3.56197 18.972
1 26.8005 5.49102 19.3912
1 26.8084 3.52845 20.8866
2 -0.284077 5.49996 21.3278
1 1.58856 6.27045 21.695
1 26.7983 5.45458 23.2834
2 1.69647 5.56011 23.6072
1 1.49965 3.57099 24.1325
1 1.59515 5.47041 25.6391
2 1.65286 3.55557 26.0594
1 -0.318728 3.56852 26.3429
1 1.62007 3.56279 27.9917
2 26.8042 7.43337 0.236473
1 26.8102 9.38063 0.543239
1 0.474841 7.42682 2.13604
2 -0.313783 9.34666 2.48248
1 1.61635 9.36131 2.96097
1 26.8047 9.23936 4.49433
2 1.66042 9.41181 4.86948
1 1.49658 7.4323 5.24937
1 1.61533 9.36511 6.82481
2 1.65204 7.43316 7.23716
1 -0.311244 7.437 7.54318
1 1.62416 7.43628 9.17589
2 -0.279283 7.43616 9.53609
1 26.794 9.36281 9.96535
1 26.7205 7.38455 11.5748
2 26.795 9.41612 11.9231
1 1.61918 9.36856 12.314
1 26.8231 9.21444 13.8972
2 1.66052 9.45481 14.2837
1 1.49517 7.42856 14.654
1 1.66934 9.36527 16.2287
2 1.59558 7.43377 16.6522
1 -0.319619 8.18773 16.9969
1 1.63643 7.43241 18.5873
2 -0.286157 7.43143 18.876
1 26.7894 9.38356 19.3983
1 26.6836 7.49889 20.8887
2 -0.269309 9.42076 21.3282
1 1.59787 9.40413 21.7
1 26.7561 9.36684 23.2333
2 1.63374 9.3875 23.6751
1 2.10749 7.44064 24.267
1 1.62288 9.38495 25.6506
2 1.59332 7.431 26.0426
1 26.795 7.43375 26.4551
1 1.63192 7.42774 27.961
2 -0.314467 11.3096 0.166769
1 -0.297597 13.2459 0.557907
1 26.7441 11.2845 2.09831
2 -0.268655 13.2448 2.53002
1 1.62925 14.0657 2.92679
1 -0.315471 13.1969 4.48009
2 1.61869 13.2509 4.82012
1 1.62826 11.2972 5.29708
1 1.62217 13.2469 6.82737
2 1.62076 11.3096 7.22206
1 26.8104 11.3076 7.61004
1 1.6226 11.3078 9.1738
2 26.8096 11.3101 9.56794
1 -0.312488 13.2506 9.95878
1 -0.24705 11.333 11.4984
2 26.7689 13.2108 11.9181
1 1.60581 13.3666 12.2867
1 26.7917 13.3092 13.856
2 1.67138 13.1726 14.2888
1 2.27061 11.2101 14.7712
1 1.62467 13.253 16.239
2 1.61897 11.3023 16.5785
1 26.7947 11.3225 17.0458
1 1.61857 11.3072 18.5835
2 -0.315823 11.3039 18.9726
1 26.8074 13.2449 19.3631
1 -0.31013 11.3227 20.928
2 -0.314605 13.2538 21.3219
1 1.62486 13.2467 21.7192
1 26.7908 13.2879 23.2592
2 1.58721 13.1593 23.6907
1 2.27369 11.4318 24.1992
1 1.61707 13.2756 25.6548
2 1.62391 11.3142 25.9805
1 26.7987 11.3117 26.4429
1 1.60665 11.3118 27.9495
2 26.8043 15.1816 0.169181
1 -0.313275 17.1239 0.555893
1 26.7493 15.2066 2.10268
2 -0.316201 17.1196 2.51661
1 1.62331 17.132 2.90539
1 -0.293859 17.1766 4.4568
2 1.62113 17.117 4.8659
1 1.6339 15.1966 5.29305
1 1.62119 17.1218 6.82782
2 1.61836 15.1829 7.23359
1 -0.302402 15.1826 7.63744
1 1.62566 15.1813 9.24145
2 26.779 15.1849 9.55383
1 -0.315636 17.1072 9.95898
1 -0.149809 15.1655 11.5194
2 26.7182 17.2084 11.9187
1 1.64396 16.9582 12.3167
1 -0.306216 17.1221 13.8782
2 1.59089 17.148 14.2694
1 1.56508 15.2118 14.6313
1 1.74989 17.1209 16.2479
2 1.58018 15.1433 16.6066
1 26.8029 15.182 17.0179
1 1.62616 15.1895 18.5741
2 -0.314158 15.1851 18.9722
1 -0.317937 17.1191 19.3676
1 -0.315578 15.1731 20.9019
2 -0.313794 17.1217 21.3768
1 1.63787 17.1121 21.7102
1 26.8092 17.8653 23.2603
2 1.53016 17.1618 23.6619
1 1.78221 15.167 24.0723
1 1.6202 17.1126 25.6267
2 1.59748 15.1833 26.0454
1 -0.308085 15.1854 26.4222
1 1.62166 15.1877 27.9855
2 -0.315618 19.0607 0.165755
1 26.7854 20.9956 0.564931
1 -0.313189 19.0548 2.12256
2 -0.272161 20.9557 2.51312
1 1.61076 20.9927 2.93442
1 -0.318229 21.0009 4.47066
2 1.62308 20.9939 4.86792
1 1.61955 19.0565 5.26229
1 1.62353 20.9921 6.82395
2 1.62032 19.0568 7.21631
1 -0.311025 19.0566 7.61119
1 1.63431 19.0576 9.14678
2 26.81 19.0594 9.61597
1 26.8123 21.013 9.94291
1 0.507815 19.044 11.5165
2 26.8078 20.9484 11.9089
1 1.64495 21.0523 12.332
1 26.8077 20.9901 13.8793
2 1.62446 20.9953 14.2692
1 1.62655 19.0548 14.6692
1 1.67946 20.9774 16.2069
2 1.58302 19.0973 16.6228
1 26.8007 19.0497 17.0127
1 1.60333 18.9964 18.5565
2 -0.314209 19.057 18.9713
1 26.7949 20.985 19.3912
1 26.8071 19.0662 20.9047
2 -0.313825 20.9913 21.3243
1 1.61075 20.9931 21.7426
1 26.8003 21.007 23.2826
2 1.59467 20.9943 23.6569
1 1.68134 19.0865 24.0928
1 1.74536 20.9934 25.6454
2 1.58482 19.0172 26.0267
1 26.8001 19.0548 26.4177
1 1.60116 19.0055 27.9612
2 -0.287451 22.9301 28.358
1 -0.281345 24.8431 0.584455
1 26.6791 22.9282 2.14173
2 -0.273366 24.9108 2.51479
1 1.58881 24.8175 2.95777
1 26.7974 24.8643 4.47357
2 1.62259 24.8688 4.88641
1 1.60933 22.929 5.25818
1 1.56166 24.844 6.86815
2 1.62307 22.9055 7.19798
1 -0.311011 22.9387 7.61541
1 1.61747 23.0651 9.19712
2 26.7679 22.8937 9.56988
1 -0.184083 24.8685 9.9489
1 -0.311471 22.9366 11.5224
2 26.7837 24.8711 11.9601
1 1.59682 24.8146 12.271
1 26.801 24.8792 13.9688
2 1.61759 24.8213 14.2274
1 1.60849 22.9329 14.6727
1 1.53928 24.9167 16.2082
2 1.60878 22.9139 16.6414
1 -0.318303 23.5104 17.1135
1 1.6238 22.9835 18.579
2 -0.313797 22.9226 18.9478
1 -0.311087 24.8978 19.3618
1 26.8042 22.9293 20.9307
2 26.7688 24.8305 21.3143
1 1.62103 24.9944 21.7006
1 26.7973 24.8621 23.2444
2 1.61683 24.8407 23.7421
1 1.62276 22.9029 24.0535
1 2.31048 24.7527 25.5247
2 1.58379 23.0192 26.0111
1 26.774 22.8755 26.431
1 1.57999 22.9283 27.935
2 3.55969 26.7594 0.180757
1 3.54699 1.64728 0.578158
1 4.31285 -0.299577 2.12072
2 3.56244 1.56778 2.50492
1 5.49077 1.62913 2.97964
1 3.54855 1.61623 4.47637
2 5.46081 1.58718 4.86437
1 5.48801 -0.321371 5.26195
1 5.49753 1.61219 6.75002
2 5.44356 -0.289143 7.21351
1 3.55243 0.442081 7.63073
1 5.50232 26.6421 9.15186
2 3.56306 -0.231966 9.57789
1 3.48816 1.63269 9.99465
1 4.31264 26.7906 11.5314
2 3.5603 1.59126 11.8885
1 5.49729 1.67291 12.371
1 3.55497 1.48935 13.895
2 5.5363 1.66259 14.2768
1 5.37075 -0.316424 14.6503
1 5.4908 1.61886 16.2264
2 5.52502 26.8062 16.6394
1 3.56634 -0.309773 16.9483
1 5.49623 26.8069 18.5802
2 3.58568 -0.317965 18.9366
1 3.55197 1.61074 19.3625
1 3.43288 26.8048 20.9424
2 3.59569 1.65967 21.3234
1 5.49808 1.62301 21.7166
1 3.55869 1.60402 23.2754
2 5.50075 1.61743 23.6762
1 5.49216 26.8073 24.0666
1 5.55157 1.64111 25.6122
2 5.44558 26.8051 26.0335
1 3.54991 0.51089 26.4287
1 5.52353 -0.316802 27.9377
2 3.56605 3.55667 0.169121
1 3.55567 5.49791 0.56402
1 3.54679 3.5606 2.12663
2 3.5588 5.49653 2.51599
1 5.474 5.55206 2.93318
1 3.55723 5.49747 4.47686
2 5.45847 5.53466 4.86419
1 5.62309 3.56519 5.24738
1 5.44631 5.52865 6.77568
2 5.52029 3.56005 7.29893
1 3.53268 3.57742 7.59036
1 5.48286 4.38153 9.1805
2 3.60728 3.56135 9.55522
1 3.49769 5.52161 9.98322
1 3.56095 3.56379 11.53
2 3.55786 5.49746 11.9206
1 5.49115 5.5006 12.3161
1 3.56449 5.49368 13.878
2 5.49727 5.49704 14.2717
1 5.49852 3.56501 14.6671
1 5.49671 5.49784 16.2302
2 5.49554 3.55989 16.6231
1 3.56039 3.55744 17.0146
1 5.49839 3.5566 18.5789
2 3.55888 3.5581 18.9681
1 3.56098 5.49507 19.3609
1 3.61633 3.52723 20.8821
2 3.46376 5.4394 21.3162
1 5.53528 5.61192 21.6793
1 3.62451 5.97714 23.0798
2 5.5054 5.42528 23.7232
1 5.56237 3.51685 24.0771
1 6.26164 5.4958 25.6191
2 5.49261 3.6155 26.0126
1 3.53828 3.5123 26.438
1 5.46572 3.61763 27.9395
2 3.55795 7.43367 28.3618
1 3.5115 9.32589 0.561033
1 3.57365 7.43178 2.1242
2 3.5594 9.41988 2.50395
1 5.52107 9.31162 2.93143
1 3.5659 9.37651 4.47829
2 5.49768 9.37088 4.86819
1 5.49649 7.44265 5.26041
1 5.49641 9.37097 6.82704
2 5.49873 7.43032 7.22207
1 3.56212 7.43526 7.61286
1 5.4975 7.44667 9.17952
2 3.56123 7.43292 9.571
1 3.5584 9.36778 9.95829
1 3.56198 7.43441 11.5272
2 3.55873 9.36851 11.9177
1 5.49656 9.37871 12.308
1 3.56241 9.26014 13.8358
2 5.49722 9.41793 14.2852
1 5.49789 7.4295 14.6679
1 5.50313 9.34619 16.2508
2 5.49664 7.43367 16.636
1 3.56268 7.43144 17.0137
1 5.49962 7.43316 18.6442
2 3.53444 7.43423 18.9481
1 3.5643 9.37265 19.361
1 3.72417 7.44628 20.8615
2 3.51754 9.41543 21.3166
1 5.54068 9.25253 21.6725
1 3.72954 10.3058 23.1777
2 5.51294 9.44478 23.6606
1 5.604 7.44492 24.0232
1 5.45955 9.34233 25.5859
2 5.54668 7.38029 26.0539
1 3.57539 7.49788 26.3821
1 5.50112 7.41696 27.9953
2 3.61444 11.306 0.205393
1 3.50042 13.2801 0.571381
1 4.37273 11.3159 2.1182
2 3.51481 13.1987 2.51736
1 5.51828 13.3069 2.93048
1 3.57123 13.2401 4.48254
2 5.49697 13.2477 4.86837
1 5.49574 11.3064 5.26372
1 5.49419 13.2417 6.82767
2 5.4968 11.3071 7.2188
1 3.55922 11.3082 7.61132
1 5.49646 11.3094 9.17658
2 3.55796 11.3094 9.56597
1 3.55359 13.2496 9.96422
1 3.56147 11.2866 11.4905
2 3.59895 13.2198 11.9484
1 5.51706 13.242 12.2923
1 3.54695 14.1243 13.8524
2 5.44914 13.2045 14.268
1 6.28637 11.313 14.6767
1 5.49018 13.2516 16.2351
2 5.49946 11.3047 16.5737
1 3.55948 11.3123 17.0763
1 5.49754 11.309 18.5838
2 3.56047 11.3082 18.9735
1 3.55925 13.2488 19.3628
1 3.55414 11.3242 20.8918
2 3.55881 13.2182 21.3057
1 5.49566 13.249 21.7185
1 3.58535 13.4143 23.2716
2 5.53505 13.2065 23.6729
1 5.57934 11.3377 24.1012
1 5.48909 13.268 25.6029
2 5.4973 11.3069 26.0803
1 3.56434 11.3058 26.4452
1 5.51013 12.0641 27.94
2 3.56089 15.181 28.3606
1 3.55738 17.12 0.55794
1 3.61785 15.2093 2.10284
2 3.55722 17.1186 2.51749
1 5.49627 17.1205 2.9044
1 3.55609 17.1201 4.47478
2 5.46897 17.1192 4.84443
1 5.4903 15.1881 5.26534
1 5.62415 17.1188 6.83844
2 5.46188 15.1435 7.21543
1 3.55531 15.1807 7.60903
1 5.5003 15.1886 9.17191
2 3.58793 15.1846 9.54694
1 3.55092 17.1189 9.96724
1 3.43515 15.1987 11.5043
2 3.59516 17.1591 11.9364
1 5.49727 17.1267 12.3091
1 3.55522 17.1287 13.9448
2 5.49108 17.0767 14.2487
1 5.53534 15.2071 14.6918
1 5.36489 17.1246 16.2414
2 5.53997 15.1443 16.6216
1 3.55867 15.3119 17.0031
1 5.48631 15.191 18.5793
2 3.55849 15.1568 19.0103
1 3.55993 17.1196 19.2971
1 3.56016 15.1851 20.9982
2 3.55847 17.149 21.2863
1 5.49298 17.1139 21.7214
1 3.56054 16.9942 23.2925
2 5.53459 17.1617 23.6733
1 5.37286 15.1875 24.0519
1 5.49421 17.1093 25.6295
2 5.52445 15.1799 26.0491
1 3.56188 15.1838 26.3518
1 5.49756 15.1965 27.9865
2 3.55939 19.0833 0.200122
1 4.31366 20.9887 0.54516
1 3.55931 19.0425 2.13714
2 3.5619 20.9926 2.44842
1 5.51608 21.0229 2.95046
1 3.53527 20.9284 4.45077
2 5.46904 20.9926 4.89829
1 5.49748 19.0492 5.26867
1 5.48305 20.9676 6.84852
2 5.45778 19.0883 7.21993
1 3.55319 19.0607 7.60577
1 5.47775 18.992 9.15377
2 3.55619 19.0522 9.56983
1 3.54867 20.9818 9.96303
1 3.57503 19.0605 11.5294
2 3.55867 20.9962 11.9214
1 5.48732 20.9886 12.3449
1 3.5558 20.9959 13.8812
2 5.45549 21.034 14.272
1 5.61705 19.056 14.6544
1 5.50241 20.9977 16.2216
2 5.50606 19.0987 16.6434
1 3.55783 18.9353 17.0017
1 5.5056 18.9924 18.5596
2 3.55577 19.143 19.0049
1 4.31636 20.9948 19.3849
1 3.55897 19.0487 20.9432
2 3.55826 20.996 21.2852
1 5.48838 20.9973 21.7343
1 3.56019 20.9967 23.3479
2 5.57601 20.9958 23.6484
1 5.43702 19.0431 24.0928
1 5.37821 20.9918 25.6441
2 5.53175 19.0169 26.0264
1 3.55905 19.1873 26.4092
1 5.51659 19.0054 27.9611
2 3.55739 22.965 0.207219
1 4.31686 24.832 0.592525
1 3.56121 22.9309 2.15072
2 3.55965 24.9253 2.45447
1 5.53216 24.7888 2.97345
1 3.5337 24.9401 4.45085
2 5.46537 24.8687 4.91569
1 6.0118 22.9275 5.39772
1 5.54726 24.8738 6.88828
2 5.48266 22.9103 7.19104
1 3.5425 22.9295 7.64749
1 5.47796 23.0988 9.18067
2 3.55748 22.844 9.56578
1 3.55495 24.8415 9.94749
1 3.56208 22.9389 11.5147
2 3.56053 24.8975 11.9403
1 5.51996 24.8141 12.2749
1 3.56343 24.9986 13.896
2 5.53654 24.8304 14.2571
1 5.4968 22.9335 14.6662
1 5.49321 24.8735 16.2228
2 5.49529 22.9334 16.6224
1 3.56158 22.9269 17.0146
1 5.51237 22.9918 18.5606
2 3.55788 22.8801 18.9844
1 3.55483 24.8747 19.3708
1 3.56232 22.9399 20.9411
2 3.59528 24.8302 21.3208
1 5.50072 24.8653 21.7147
1 3.57139 24.8779 23.2434
2 5.49526 24.8717 23.6749
1 5.43473 22.95 24.088
1 5.56747 24.8516 25.6065
2 5.52994 22.9731 26.0243
1 3.58028 22.7629 26.4272
1 5.54193 22.9261 27.9409
2 7.39393 -0.221195 0.174806
1 8.19747 1.5944 0.55756
1 7.454 26.7986 2.12355
2 7.43221 1.64902 2.42899
1 9.39978 1.57294 2.95531
1 7.43852 1.74954 4.48602
2 9.40786 1.5848 4.86943
1 9.37264 -0.319686 5.26277
1 9.42759 1.59877 6.79797
2 9.36617 -0.312462 7.22035
1 7.43171 26.7953 7.61133
1 9.37482 26.7077 9.14279
2 7.47294 -0.222433 9.58033
1 8.2007 1.63224 10.0127
1 7.44437 26.7753 11.5456
2 7.40162 1.57897 11.8751
1 9.37316 1.74987 12.361
1 7.44046 1.62826 13.8792
2 9.37283 1.59258 14.2953
1 9.36972 26.8044 14.6702
1 9.37117 1.62181 16.2332
2 9.37185 26.8075 16.6396
1 7.43819 26.8069 17.0131
1 9.37125 -0.315902 18.6472
2 7.40837 -0.314088 18.9545
1 7.4393 1.61852 19.3693
1 7.56135 26.8081 20.9474
2 7.39535 1.65946 21.3233
1 9.37077 1.49473 21.7025
1 7.43888 1.61201 23.2724
2 9.3721 1.65091 23.6944
1 9.31453 -0.292086 24.0193
1 9.3773 1.62291 25.6349
2 9.36967 -0.288229 25.9894
1 7.44241 26.8027 26.4188
1 9.39131 26.6421 27.978
2 7.43317 3.50834 0.245485
1 7.43367 5.51075 0.543714
1 8.18924 3.57932 2.15995
2 7.43403 5.46722 2.48111
1 9.39114 5.55169 2.9314
1 7.43416 5.36876 4.48644
2 9.41051 5.53411 4.86758
1 9.23515 3.5606 5.25022
1 9.42581 5.52027 6.79901
2 9.34455 3.55888 7.26853
1 7.45215 4.31883 7.57207
1 9.3834 3.66531 9.21951
2 7.36645 3.51756 9.4766
1 7.4933 5.52803 10.0136
1 7.55116 3.56932 11.547
2 7.39484 5.53332 11.9251
1 9.37269 5.36672 12.2996
1 7.43725 5.49023 13.8761
2 9.37116 5.52401 14.2915
1 9.37068 3.56039 14.6001
1 9.37099 5.49621 16.233
2 9.3711 3.55904 16.6075
1 7.43402 3.55826 17.0135
1 9.36879 3.5599 18.576
2 7.43421 3.55952 18.972
1 7.42801 5.49974 19.3674
1 7.43426 3.55694 20.9296
2 7.4736 5.45891 21.3203
1 9.36491 5.49504 21.7042
1 7.4517 5.49441 23.2487
2 9.42533 5.49901 23.6652
1 9.31181 3.5401 24.088
1 9.38432 5.49869 25.6332
2 9.36678 3.56282 26.0241
1 7.45531 3.50717 26.4451
1 9.40529 3.61337 27.9427
2 7.43591 7.43775 28.3793
1 7.48892 9.34999 0.579844
1 7.4348 7.4314 2.12378
2 7.43415 9.37208 2.51829
1 9.37243 9.37038 2.91068
1 7.43713 9.37356 4.47849
2 9.3711 9.37265 4.8672
1 9.37029 7.44288 5.26075
1 9.37129 9.37189 6.8263
2 9.36928 7.43225 7.22041
1 7.43396 7.44772 7.60957
1 9.37255 7.4369 9.1765
2 7.43469 7.42927 9.56531
1 7.43432 9.37058 9.96033
1 7.42998 7.43973 11.5273
2 7.4343 9.36919 11.9193
1 9.37349 9.37816 12.3098
1 7.43447 9.26662 13.8426
2 9.3711 9.42055 14.2846
1 9.37368 7.43455 14.6668
1 9.36406 9.34751 16.2511
2 9.37242 7.43516 16.6219
1 7.43338 7.43069 17.0118
1 9.37283 7.43324 18.5774
2 7.46166 7.43413 18.9519
1 7.42925 9.36691 19.37
1 7.30917 7.43414 20.9437
2 7.4753 9.40861 21.3217
1 9.37416 9.37568 21.7174
1 7.44209 9.37723 23.2714
2 9.37226 9.36877 23.6764
1 9.31602 7.45854 24.0871
1 9.37671 9.37463 25.6347
2 9.36821 7.433 26.0252
1 7.46126 7.48406 26.4467
1 9.37625 7.4314 27.987
2 7.37743 11.3082 28.3674
1 7.48883 13.2681 0.576993
1 7.44311 11.3075 2.12446
2 7.43445 13.2444 2.51581
1 9.37243 13.2513 2.91107
1 7.41397 13.188 4.45778
2 9.36662 13.3014 4.87945
1 9.37077 11.3084 5.26043
1 9.37469 13.2278 6.83712
2 9.37077 11.3077 7.21817
1 7.43318 11.3067 7.611
1 9.37066 11.3075 9.17671
2 7.43393 11.3079 9.56874
1 7.43378 13.2414 9.96162
1 7.43355 11.3051 11.5219
2 7.43663 13.2449 11.9185
1 9.36404 13.2435 12.3086
1 7.40551 13.2911 13.8174
2 9.4075 13.2495 14.282
1 10.0942 11.1853 14.7915
1 9.37626 13.2465 16.2414
2 9.36728 11.3074 16.5746
1 7.43373 11.3062 17.0708
1 9.37228 11.3063 18.5848
2 7.43267 11.3083 18.978
1 7.43388 13.2434 19.367
1 7.43628 11.314 20.9323
2 7.43397 13.2491 21.3243
1 9.37143 13.2329 21.7146
1 7.44075 13.2465 23.2802
2 9.37219 13.2484 23.6735
1 9.37086 11.3082 24.0659
1 9.3722 13.2438 25.635
2 9.37006 11.3084 26.0258
1 7.44971 11.3093 26.4083
1 9.3715 11.3085 27.9838
2 7.43461 15.1823 28.3787
1 7.43611 17.1196 0.559429
1 7.43452 15.1878 2.12408
2 7.43428 17.1208 2.53325
1 9.37065 17.1153 2.90507
1 7.40719 17.1758 4.51881
2 9.39677 17.0639 4.85477
1 10.128 15.1827 5.28167
1 9.24866 17.125 6.84848
2 9.40738 15.1442 7.16197
1 7.41929 15.3111 7.62921
1 9.36727 15.1886 9.17103
2 7.43485 15.1527 9.5887
1 7.43392 17.119 9.89569
1 7.43512 15.1835 11.5217
2 7.43768 17.0928 11.8822
1 9.3682 17.121 12.316
1 7.40687 17.2847 13.8393
2 9.40519 17.0357 14.3353
1 10.0386 15.267 14.7651
1 10.1364 17.1643 16.2455
2 9.36477 15.2345 16.5664
1 7.40669 15.1282 17.0633
1 9.3709 15.1881 18.5802
2 7.43388 15.1833 18.9765
1 7.4388 17.1148 19.3686
1 7.37916 15.1607 20.9127
2 7.48799 17.1223 21.3383
1 9.37277 17.875 21.7362
1 7.42553 17.1117 23.2951
2 9.37299 17.1219 23.6185
1 9.37226 15.1702 24.0964
1 9.36701 17.1139 25.6347
2 9.37192 15.1828 26.0282
1 7.43693 15.1838 26.4212
1 9.37303 15.1856 27.9838
2 7.43338 19.0572 0.164319
1 7.44635 20.9909 0.552668
1 7.43285 19.0484 2.11567
2 7.43298 20.9426 2.47815
1 9.35333 21.0206 2.91687
1 7.43453 21.0454 4.42527
2 9.44201 20.988 4.89854
1 9.3103 19.0269 5.28294
1 9.40347 20.9717 6.9317
2 9.40659 19.0573 7.19261
1 7.43462 18.9379 7.60486
1 9.40881 19.1386 9.16245
2 7.41171 19.0995 9.62552
1 8.0087 20.993 10.0617
1 7.42611 19.0386 11.6108
2 7.42191 21.0236 11.8784
1 9.39259 20.9921 12.306
1 7.43279 20.8677 13.896
2 9.38205 21.0348 14.2499
1 9.25244 19.0771 14.6454
1 9.49394 20.9963 16.3102
2 9.36077 18.9326 16.6194
1 7.41453 19.1306 16.975
1 9.37388 19.1846 18.5967
2 7.39263 19.0204 18.9548
1 7.55966 20.997 19.3505
1 7.38512 19.0711 20.8772
2 7.40537 20.9927 21.3967
1 9.37954 21.0038 21.6319
1 7.43127 21.7496 23.2585
2 9.28983 20.992 23.6231
1 9.43283 19.0519 24.1188
1 9.49413 20.9921 25.6487
2 9.33379 19.0173 26.0293
1 7.43508 19.0534 26.4189
1 9.37426 19.0627 27.9797
2 7.39384 22.8922 0.189647
1 7.56942 24.8661 0.540442
1 7.44115 22.9337 2.24794
2 7.39829 24.9239 2.49612
1 9.36551 24.8401 2.85168
1 7.4395 24.818 4.4317
2 9.39635 24.8727 4.88324
1 10.2893 23.0944 5.36623
1 9.37615 24.9102 6.84782
2 9.37463 22.9725 7.18894
1 7.43261 22.9263 7.68283
1 9.41696 22.8421 9.1684
2 7.45448 22.8815 9.59667
1 7.30051 24.8706 9.95197
1 7.42312 22.9601 11.5406
2 7.46324 24.8725 11.9407
1 9.37368 24.866 12.3138
1 7.44095 24.8689 13.8868
2 9.37552 24.8709 14.2711
1 9.36648 22.9304 14.6671
1 9.36922 24.8789 16.2296
2 9.33465 22.9984 16.6039
1 7.43541 22.9276 17.0159
1 9.36745 22.8019 18.5899
2 7.39484 22.9677 18.9703
1 7.43937 24.8799 19.368
1 7.43679 22.9368 20.8972
2 7.39773 24.8276 21.3264
1 9.35421 24.9955 21.6946
1 7.43936 24.8859 23.2779
2 9.42794 24.8395 23.6987
1 9.37748 22.9256 24.1112
1 9.37331 24.8746 25.7028
2 9.33051 22.9416 26.0077
1 7.44233 22.9407 26.4271
1 9.37266 23.0517 27.9961
2 11.344 -0.274671 0.165419
1 11.3246 1.62676 0.556917
1 11.3025 26.8034 2.11545
2 11.303 1.62191 2.51403
1 13.2414 1.62859 2.90842
1 11.2978 1.56503 4.45799
2 13.2491 1.67441 4.87936
1 13.2547 26.8055 5.26665
1 13.2435 1.61378 6.8346
2 13.2066 -0.276609 7.2183
1 11.3077 -0.308305 7.61001
1 13.2715 26.7443 9.15327
2 11.3063 -0.260922 9.58097
1 12.1085 1.62108 9.98555
1 11.3116 26.7904 11.537
2 11.3442 1.58268 11.8645
1 13.2611 1.61959 12.3425
1 11.3091 1.62774 13.8766
2 13.2449 1.62239 14.2738
1 13.2452 -0.315786 14.6638
1 13.2451 1.62144 16.2299
2 13.2475 26.8095 16.6198
1 11.307 -0.314459 17.0117
1 13.2492 26.8072 18.577
2 11.3376 26.8077 18.9509
1 11.3034 1.61727 19.3629
1 11.178 -0.29823 20.9135
2 11.3495 1.66099 21.3277
1 13.2386 1.61334 21.7055
1 11.3053 1.61614 23.2799
2 13.2973 1.6223 23.6613
1 13.2448 -0.313342 24.1106
1 13.2456 1.61531 25.6402
2 13.2429 26.8067 26.0277
1 11.3057 26.8027 26.4236
1 13.2464 -0.313609 27.9834
2 11.3042 3.56098 0.169414
1 11.3105 5.49822 0.558898
1 11.3233 3.55941 2.12369
2 11.3071 5.496 2.5147
1 13.243 5.48902 2.9087
1 11.2954 5.55271 4.45613
2 13.2481 5.44385 4.88014
1 14.0004 3.55953 5.28006
1 13.2463 5.51076 6.83519
2 13.2481 3.5617 7.16109
1 11.2996 3.55298 7.63749
1 13.2706 3.61533 9.1531
2 11.3374 3.50534 9.56337
1 11.3057 5.49602 9.96954
1 11.1859 3.57101 11.5533
2 11.3473 5.53475 11.9208
1 13.2504 5.49986 12.3131
1 11.3055 5.49155 13.8756
2 13.2459 5.49396 14.2717
1 13.2462 3.55965 14.6646
1 13.2456 5.49624 16.2302
2 13.2456 3.55908 16.6217
1 11.3072 3.55921 17.0134
1 13.2452 3.55803 18.577
2 11.3064 3.56059 18.969
1 11.3127 5.4966 19.3651
1 11.2556 3.5309 20.8857
2 11.3594 5.49795 21.3884
1 13.2685 6.2525 21.7192
1 11.287 6.25268 23.279
2 13.1665 5.49508 23.5873
1 13.2501 3.55145 24.1374
1 13.3687 5.49911 25.6536
2 13.2048 3.52129 26.0318
1 11.3072 3.55451 26.42
1 13.2498 3.56546 27.9822
2 11.3085 7.43276 0.166971
1 11.3096 9.37088 0.55754
1 11.3088 7.43599 2.12223
2 11.307 9.37093 2.51689
1 13.2415 9.37362 2.90896
1 11.3084 9.37074 4.47594
2 13.2459 9.36947 4.86775
1 13.2453 7.43406 5.26106
1 13.2459 9.3705 6.8258
2 13.2461 7.43292 7.21885
1 11.3088 7.43632 7.61144
1 13.2453 7.43433 9.17897
2 11.307 7.43277 9.56795
1 11.3087 9.36812 9.95889
1 11.312 7.4368 11.526
2 11.3081 9.37427 11.92
1 13.2522 9.37772 12.3149
1 11.3294 9.29873 13.8552
2 13.2058 9.33594 14.2725
1 13.245 7.42791 14.6642
1 13.2513 9.37067 16.2283
2 13.2473 7.43384 16.6224
1 11.31 7.43276 17.0132
1 13.2462 7.43438 18.5776
2 11.308 7.43231 18.9697
1 11.31 9.37546 19.3624
1 11.2561 7.46704 20.8864
2 11.3099 9.36772 21.3266
1 13.2459 9.38376 21.7151
1 11.3093 9.38309 23.2849
2 13.2466 9.36758 23.6724
1 13.305 7.46374 24.1169
1 13.2417 9.38004 25.6375
2 13.2052 7.4716 26.0275
1 11.3032 7.43742 26.4214
1 13.246 7.42774 27.9784
2 11.308 11.3085 0.165957
1 11.3087 13.2453 0.557555
1 11.3095 11.3071 2.12263
2 11.3079 13.2442 2.5161
1 13.2485 13.2468 2.90653
1 11.3298 13.1926 4.4567
2 13.245 13.246 4.86782
1 13.2489 11.3064 5.26019
1 13.2456 13.2456 6.82657
2 13.246 11.3082 7.21819
1 11.3092 11.308 7.61103
1 13.2473 11.3083 9.17654
2 11.3087 11.3094 9.56629
1 11.3082 13.2457 9.96099
1 11.3068 11.292 11.4915
2 11.3139 13.2464 11.9619
1 13.2822 13.2393 12.2877
1 11.424 13.9943 13.7602
2 13.1631 13.2845 14.2563
1 13.4187 11.285 14.6717
1 13.2464 13.2375 16.2251
2 13.2159 11.3075 16.6399
1 11.3216 11.3096 17.0532
1 13.2495 11.3087 18.5857
2 11.306 11.3087 18.9784
1 11.3087 13.2423 19.3664
1 11.3077 11.3083 20.9323
2 11.3082 13.2462 21.3253
1 13.247 13.2441 21.7167
1 11.3085 13.2457 23.2831
2 13.2448 13.246 23.6753
1 13.2463 11.3086 24.0668
1 13.2432 13.2441 25.6328
2 13.2464 11.3098 26.0256
1 11.3079 11.3083 26.4186
1 13.2467 11.3077 27.9848
2 11.3086 15.1822 28.3768
1 11.3083 17.1146 0.557283
1 11.3083 15.1826 2.12321
2 11.3097 17.1225 2.5175
1 13.249 17.1191 2.90611
1 11.3331 17.1608 4.45563
2 13.2456 17.121 4.86815
1 13.2579 15.1829 5.25892
1 13.2447 17.1179 6.82981
2 13.2447 15.1831 7.21669
1 11.3235 15.1802 7.63904
1 13.2491 15.1833 9.17827
2 11.3067 15.1818 9.56795
1 11.3131 17.1159 9.96244
1 11.3069 15.1998 11.4909
2 11.3034 17.1207 11.9183
1 13.2509 17.1203 12.3055
1 11.3423 17.1849 13.833
2 13.2172 17.1227 14.251
1 13.3196 15.2163 14.6912
1 13.3833 17.1174 16.2494
2 13.2071 15.1417 16.6208
1 11.3394 15.1304 17.0642
1 13.2555 15.1905 18.5787
2 11.308 15.1811 18.9774
1 11.3064 17.1127 19.3701
1 11.3634 15.1596 20.9136
2 11.2539 17.119 21.3385
1 13.2439 17.1216 21.7132
1 11.3229 17.1181 23.2922
2 13.2453 17.1196 23.6754
1 13.2454 15.182 24.0669
1 13.2362 17.1157 25.6353
2 13.2459 15.182 26.0249
1 11.3088 15.1818 26.4188
1 13.243 15.1844 27.9867
2 11.3078 19.0298 0.184005
1 11.3113 20.9911 0.489467
1 11.3087 19.047 2.096
2 11.3092 20.9941 2.55086
1 13.2724 20.9866 2.88382
1 11.4284 21.6434 4.33859
2 13.196 20.9988 4.85117
1 13.3051 19.0362 5.281
1 13.2381 20.9904 6.82564
2 13.2476 19.0573 7.21843
1 11.3111 19.0784 7.62193
1 13.2538 19.0509 9.17625
2 11.3576 19.0019 9.57449
1 11.296 20.9934 9.96147
1 11.3003 19.0613 11.5198
2 11.3382 20.9922 11.9595
1 13.2517 20.9994 12.3079
1 11.2911 20.9399 13.9323
2 13.249 21.0534 14.2282
1 13.2565 19.0683 14.685
1 13.2497 20.9874 16.2792
2 13.1901 19.0066 16.6212
1 11.3183 19.2338 17.0247
1 13.2582 19.0609 18.5634
2 11.3505 18.9918 18.9878
1 11.188 20.9964 19.2817
1 11.3573 19.0834 20.9076
2 11.2952 20.9564 21.3595
1 13.2465 21.1214 21.7031
1 11.3116 20.9891 23.3463
2 13.2745 20.9662 23.6789
1 13.2414 19.0584 24.0737
1 13.1158 20.9951 25.6538
2 13.2851 19.0166 26.027
1 11.3101 19.1854 26.4059
1 13.2403 19.0622 27.9816
2 11.3499 22.9198 0.18521
1 11.1851 24.8732 0.544509
1 11.2991 22.9535 2.08856
2 11.3342 24.8736 2.53838
1 13.2502 24.8658 2.90352
1 11.333 24.9497 4.45055
2 13.2194 24.8718 4.84637
1 13.32 22.9637 5.28771
1 13.3698 24.872 6.84192
2 13.2047 22.8913 7.21931
1 11.3167 22.9087 7.65724
1 13.2606 22.9451 9.17459
2 11.3597 22.989 9.57837
1 11.3155 24.8775 9.96617
1 11.2991 22.9289 11.5225
2 11.3081 24.8698 11.9209
1 13.2465 24.8631 12.3124
1 11.2877 24.923 13.861
2 13.2458 24.81 14.2827
1 14.0018 22.9182 14.706
1 13.2457 24.8942 16.2417
2 13.2463 23.0197 16.579
1 11.2915 22.7985 17.0307
1 13.2459 22.9218 18.6364
2 11.3142 23.0026 18.9665
1 11.3114 24.8782 19.3786
1 11.4343 22.9093 20.9095
2 11.307 24.8705 21.3851
1 13.2623 24.7405 21.6898
1 11.294 25.6242 23.2418
2 13.1876 24.9003 23.6835
1 13.2967 22.9048 24.0275
1 13.2445 24.8709 25.6382
2 13.286 22.9729 26.0093
1 11.3078 22.8111 26.4105
1 13.2482 22.9249 27.977
2 15.1561 -0.318176 28.3565
1 15.1902 1.6142 0.563608
1 15.308 -0.318291 2.13771
2 15.1432 1.65757 2.51831
1 17.1184 1.49767 2.89041
1 15.2092 1.56073 4.45071
2 17.1206 1.64979 4.89019
1 17.1147 26.8034 5.19806
1 17.1088 1.62615 6.82984
2 17.1583 -0.276798 7.19982
1 15.1867 26.6819 7.59285
1 17.109 26.7999 9.17352
2 15.1812 -0.286839 9.59056
1 15.196 1.62481 9.9639
1 15.183 -0.315241 11.5294
2 15.1803 1.62332 11.9211
1 17.1119 1.62052 12.3123
1 15.1855 1.62218 13.8819
2 17.1232 1.62073 14.2738
1 17.1226 26.8081 14.6634
1 17.1078 1.62188 16.2313
2 17.1213 -0.3132 16.6219
1 15.1842 -0.314327 17.0143
1 17.118 -0.314261 18.583
2 15.1823 26.8093 18.9697
1 15.1815 1.61935 19.3634
1 15.1883 26.8002 20.9021
2 15.1839 1.6229 21.3779
1 17.1383 1.62627 21.7109
1 15.195 2.38117 23.2643
2 17.0258 1.58108 23.6622
1 17.1793 26.7764 24.0941
1 17.122 1.62364 25.6293
2 17.0833 -0.276142 26.0413
1 15.1814 -0.313687 26.4189
1 17.1222 26.8017 28.0444
2 15.1841 3.53081 0.188116
1 15.1894 5.49971 0.495264
1 15.1784 3.55981 2.12481
2 15.1432 5.4598 2.50165
1 17.1214 5.62111 2.89107
1 15.2091 5.55762 4.44811
2 17.1184 5.46829 4.88931
1 17.1331 3.55938 5.26261
1 17.1179 5.49937 6.82911
2 17.117 3.56022 7.21981
1 15.1988 3.55886 7.63772
1 17.1196 3.55743 9.18011
2 15.1814 3.55925 9.57249
1 15.185 5.49803 9.96333
1 15.1835 3.55985 11.529
2 15.1839 5.49575 11.9203
1 17.1182 5.49625 12.3134
1 15.1833 5.49576 13.8792
2 17.1178 5.49628 14.2723
1 17.1201 3.55799 14.6628
1 17.1174 5.49775 16.2302
2 17.1216 3.55895 16.621
1 15.1833 3.55915 17.0139
1 17.1203 3.55744 18.5804
2 15.1841 3.55902 18.9698
1 15.1795 5.4989 19.3647
1 15.2409 3.54708 20.8839
2 15.1282 5.49248 21.3519
1 17.123 5.49065 21.7188
1 15.1906 5.51121 23.3606
2 17.1088 5.5357 23.6521
1 17.2769 3.581 24.0752
1 16.9981 5.49707 25.6484
2 17.1327 3.51893 26.0474
1 15.1824 3.68526 26.4107
1 17.118 3.56501 27.9825
2 15.1539 7.46306 0.165743
1 15.1886 9.37056 0.565321
1 15.3084 7.43491 2.13984
2 15.1435 9.41173 2.5189
1 17.1198 9.24581 2.89392
1 15.1863 9.3654 4.47116
2 17.12 9.39898 4.88918
1 17.1224 7.4354 5.19324
1 17.1208 9.37039 6.82951
2 17.1176 7.43358 7.20097
1 15.1839 7.43465 7.61007
1 17.1147 7.43356 9.17104
2 15.1827 7.43222 9.56771
1 15.1831 9.37182 9.95869
1 15.1819 7.43023 11.5262
2 15.1817 9.34226 11.8988
1 17.1094 9.38204 12.3196
1 15.1864 9.49621 13.894
2 17.1609 9.32978 14.2718
1 17.1216 7.42994 14.6643
1 17.1121 9.37019 16.2249
2 17.1199 7.43283 16.6228
1 15.1836 7.43371 17.0143
1 17.1217 7.43435 18.5791
2 15.1838 7.43336 18.9728
1 15.1824 9.37515 19.3621
1 15.2421 7.45698 20.912
2 15.1822 9.37027 21.3237
1 17.1214 9.3733 21.7168
1 15.1832 9.37331 23.2794
2 17.1181 9.37076 23.6737
1 17.1144 7.43268 24.0725
1 17.0669 9.35264 25.6145
2 17.1606 7.4738 26.0416
1 15.1847 7.30469 26.4038
1 17.1176 7.42781 28.047
2 15.1837 11.3093 28.3758
1 15.179 13.2447 0.559868
1 15.18 11.3129 2.12529
2 15.1839 13.2469 2.51618
1 17.1132 13.2464 2.91744
1 15.1826 13.2453 4.47585
2 17.1186 13.2463 4.87117
1 17.1204 11.3117 5.26147
1 17.1201 13.2463 6.82737
2 17.1199 11.31 7.22049
1 15.1833 11.3082 7.61289
1 17.12 11.3078 9.17831
2 15.1827 11.3086 9.58456
1 15.1842 13.2451 9.9574
1 15.1855 11.3073 11.5957
2 15.183 13.2746 11.8974
1 17.1178 13.2396 12.3144
1 15.1841 13.1202 13.8896
2 17.1292 13.2884 14.2483
1 17.0016 11.3103 14.6512
1 17.2444 13.239 16.241
2 17.1093 11.2665 16.6455
1 15.181 11.3047 16.9501
1 17.124 11.3158 18.5802
2 15.1832 11.3091 18.9588
1 15.1833 13.2413 19.3674
1 15.1846 11.3087 20.9302
2 15.1826 13.2456 21.3249
1 17.1202 13.2494 21.7183
1 15.1763 13.2423 23.2791
2 17.0799 13.2094 23.6728
1 17.1256 11.304 24.0655
1 17.021 13.2476 25.5926
2 17.1771 11.3139 26.0385
1 15.1825 11.3083 26.419
1 17.0994 11.3002 27.9927
2 15.1811 15.1807 28.3797
1 15.1818 17.1216 0.559397
1 15.1825 15.1828 2.12592
2 15.1833 17.1204 2.51661
1 17.1204 17.1197 2.90965