1741
Atoms. Timestep: 490
2 -0.120317 -0.166139 -0.00333264
1 -0.122368 1.69161 0.446149
1 -0.116235 -0.168567 1.99373
2 -0.117874 1.77309 2.37707
1 1.77022 1.83715 2.78173
1 -0.118415 1.82086 4.34234
2 1.77547 1.77341 4.76587
1 1.72498 -0.162097 5.17067
1 1.79149 1.78059 6.73292
2 1.7849 -0.10436 7.14932
1 -0.118001 -0.127204 7.53974
1 1.74544 -0.051086 9.12478
2 -0.117322 -0.383528 9.42459
1 -0.132408 0.0719251 11.2668
2 -0.140762 1.79203 12.056
1 1.78147 1.78875 12.2488
1 -0.102521 1.78918 13.9292
2 1.81665 1.78761 14.1208
1 1.78901 0.0691912 14.9192
2 1.72049 -0.370981 16.7833
1 -0.10484 -0.0101204 17.0878
1 1.73092 -0.0517195 18.703
2 -0.171622 -0.128735 19.0358
1 -0.191713 2.04308 19.729
1 -0.187442 -0.229647 20.9534
2 0.202044 1.46063 21.4086
1 1.89856 1.83798 21.8521
1 -0.426772 1.84408 23.0655
2 1.83922 1.81819 23.7877
1 1.71716 -0.0769603 24.1228
1 1.7533 1.79905 25.7328
2 1.78319 -0.113475 26.1207
1 -0.124189 -0.116402 26.5166
1 1.79109 -0.131854 28.0989
2 -0.110431 3.44697 -0.070376
1 -0.112635 3.91188 1.76926
2 -0.114721 5.61156 2.60556
1 1.78746 5.61009 2.85537
1 -0.114355 5.6081 4.48357
2 1.81877 5.60411 4.82423
1 1.80557 3.69349 5.17211
1 1.80263 5.60057 6.78766
2 1.79732 3.67867 7.1359
1 -0.117447 3.69729 7.52891
1 1.74549 3.63417 9.11757
2 -0.116483 3.96245 9.41676
1 -0.10901 5.71451 9.9512
1 -0.126357 3.51092 11.2638
2 -0.101061 5.59982 11.8893
1 1.78933 5.56026 12.3049
1 -0.0816756 5.53348 13.8723
2 1.80333 5.60629 14.2846
1 1.81782 3.53076 14.8644
1 1.78782 5.71557 16.2265
2 1.75415 3.94754 16.7134
1 -0.0922815 3.62633 16.9646
1 1.74786 3.67332 18.6178
2 -0.15277 3.71244 18.8452
1 -0.0988784 5.43988 19.6384
2 -0.119805 5.88446 21.4925
1 1.75786 5.59409 21.774
1 -0.13187 5.64915 23.3842
2 1.78484 5.59918 23.7659
1 1.75022 3.69374 24.1476
1 1.80061 5.60185 25.7313
2 1.78997 3.70873 26.1265
1 -0.119316 3.70521 26.5235
1 1.75081 3.75861 28.1087
2 -0.123468 7.78284 -0.0837022
1 -0.119937 9.53446 0.455104
1 -0.11788 7.3106 1.76107
2 -0.116231 9.43068 2.38642
1 1.77928 9.38303 2.78451
1 -0.116087 9.38538 4.35012
2 1.79311 9.42133 4.76973
1 1.80847 7.51377 5.18351
1 1.78958 9.42872 6.74891
2 1.79174 7.52184 7.15743
1 -0.114847 7.52477 7.55404
1 1.79744 7.55216 9.13833
2 -0.118979 7.57823 9.53415
1 -0.130201 9.44796 9.93872
1 -0.132642 7.54009 11.5461
2 -0.18062 9.44857 11.9213
1 1.68902 9.44491 12.3157
1 -0.147036 9.44062 13.9204
2 1.7967 9.44534 14.2404
1 1.82927 7.55578 14.6069
1 1.83108 9.43933 16.2047
2 1.79071 7.57976 16.6243
1 -0.105773 7.51129 17.0804
1 1.81795 7.54532 18.6312
2 -0.103127 7.5324 19.0426
1 -0.144573 9.45659 19.4078
1 -0.171381 7.64577 20.9853
2 -0.102441 9.48879 21.4127
1 1.83285 9.44507 21.8047
1 -0.030329 9.43439 23.3506
2 1.82734 9.42772 23.805
1 1.79969 7.5111 24.1488
1 1.77224 9.4211 25.7708
2 1.78616 7.50073 26.1173
1 -0.1276 7.53175 26.5002
1 1.73674 7.44928 28.0981
2 -0.122104 11.4012 0.0343639
1 -0.122064 13.2773 0.433558
1 -0.117603 11.3708 2.04506
2 -0.118456 13.2749 2.41071
1 1.79578 13.2553 2.79905
1 -0.117136 13.2586 4.38173
2 1.79052 13.2445 4.77801
1 1.78289 11.3319 5.16962
1 1.79073 13.2446 6.75385
2 1.79096 11.3348 7.15305
1 -0.115527 11.3376 7.55215
1 1.79688 11.3293 9.13835
2 -0.119586 11.3457 9.52651
1 -0.115195 13.2493 9.91956
1 -0.144162 11.3515 11.506
2 -0.11507 13.2495 11.9008
1 1.80137 13.218 12.2912
1 -0.111818 13.2395 13.8767
2 1.79983 13.2407 14.2715
1 1.83415 11.33 14.6418
1 1.79497 13.2381 16.2542
2 1.793 11.3293 16.6215
1 -0.10451 11.3391 17.04
1 1.83466 11.2683 18.6122
2 -0.0996732 11.3451 19.0079
1 -0.0816787 13.2427 19.4083
1 -0.162366 11.3379 20.9958
2 -0.117777 13.2396 21.3904
1 1.80278 13.1936 21.7772
1 -0.123119 13.2197 23.3674
2 1.79183 13.2353 23.7622
1 1.8061 11.3366 24.1785
1 1.78838 13.2511 25.7428
2 1.79232 11.3414 26.1451
1 -0.127853 11.3395 26.5267
1 1.79079 11.3646 28.112
2 -0.124179 15.1929 0.0321367
1 -0.123727 17.1274 0.429216
1 -0.119305 15.1769 2.00383
2 -0.121389 17.0621 2.43013
1 1.783 17.0727 2.80142
1 -0.122508 17.0595 4.39189
2 1.78776 17.0697 4.77874
1 1.79165 15.1564 5.17396
1 1.79022 17.0686 6.75181
2 1.79099 15.1571 7.14943
1 -0.118553 15.157 7.54702
1 1.79125 15.154 9.12635
2 -0.118208 15.1552 9.52369
1 -0.119121 17.0614 9.92087
1 -0.112998 15.1524 11.5031
2 -0.118245 17.058 11.8996
1 1.79235 17.0594 12.2949
1 -0.119199 17.0604 13.8749
2 1.79102 17.0561 14.2698
1 1.79096 15.1478 14.668
1 1.79039 17.0608 16.2454
2 1.78914 15.1526 16.6421
1 -0.119277 15.1522 17.0401
1 1.78878 15.1793 18.6164
2 -0.115636 15.1546 19.0188
1 -0.123216 17.0627 19.4149
1 -0.112368 15.1457 20.9968
2 -0.120607 17.0616 21.3863
1 1.7891 17.0542 21.7731
1 -0.120626 17.0469 23.3591
2 1.78671 17.0435 23.7323
1 1.797 15.1423 24.1514
1 1.73753 17.084 25.7066
2 1.78018 15.1677 26.1285
1 -0.12431 15.1522 26.5339
1 1.78007 15.1847 28.1084
2 -0.122504 18.9653 0.169833
1 -0.1136 20.8038 0.415465
1 -0.11951 18.9738 2.03527
2 -0.118976 20.8927 2.41576
1 1.77937 20.8781 2.79975
1 -0.117402 20.8993 4.38466
2 1.77982 20.9055 4.77856
1 1.79044 18.9817 5.172
1 1.79427 20.8906 6.7446
2 1.79151 18.9801 7.14676
1 -0.118737 18.9823 7.54523
1 1.79135 18.973 9.12383
2 -0.118885 18.9649 9.52482
1 -0.120321 20.862 9.93763
1 -0.11987 18.9606 11.5083
2 -0.119893 20.8618 11.9116
1 1.7935 20.8671 12.2908
1 -0.121078 20.8687 13.8793
2 1.79186 20.8646 14.2588
1 1.79163 18.9616 14.6604
1 1.7979 20.866 16.2337
2 1.79087 18.9653 16.6414
1 -0.120286 18.9701 17.041
1 1.79034 18.975 18.6186
2 -0.120244 18.9685 19.0157
1 -0.12039 20.8718 19.4057
1 -0.120145 18.9715 20.9926
2 -0.121055 20.8763 21.3837
1 1.79121 20.9017 21.7708
1 -0.121124 20.8951 23.356
2 1.7869 20.9029 23.7308
1 1.76221 18.974 24.0765
1 1.74504 20.8613 25.7052
2 1.6978 18.9733 25.954
1 -0.123015 18.9706 26.7891
2 -0.10898 22.7291 -0.0146163
1 -0.111814 24.6687 0.336028
1 -0.119043 22.7758 1.94914
2 -0.11927 24.6668 2.21483
1 1.58831 24.6822 3.04164
2 2.04794 24.7031 4.88688
1 1.7275 22.8417 5.18613
1 1.79118 24.7072 6.78088
2 1.77991 22.7876 7.16505
1 -0.118831 22.7839 7.56007
1 1.79415 22.7645 9.13047
2 -0.118574 22.7319 9.53958
1 -0.11472 24.5938 9.95643
1 -0.111925 22.7687 11.5515
2 -0.115874 24.7113 11.8911
1 1.77557 24.7852 12.3132
1 -0.102474 24.786 13.865
2 1.7876 24.7155 14.2898
1 1.78661 22.774 14.6242
1 1.76902 24.6068 16.2305
2 1.79364 22.7379 16.6345
1 -0.124029 22.7599 17.0411
1 1.79938 22.7843 18.6137
2 -0.119122 22.7674 19.0044
1 -0.111218 24.6707 19.3482
1 -0.11856 22.7767 20.9775
2 -0.133061 24.6417 21.3788
1 1.78495 24.7176 21.7799
1 -0.12533 24.6954 23.3651
2 1.7812 24.7178 23.7574
1 1.79778 22.8024 24.1511
1 1.7973 24.7136 25.722
2 1.79293 22.7866 26.1197
1 -0.105376 22.7765 26.5
1 1.78508 22.7548 28.1
2 3.689 -0.121021 0.0314862
1 3.68142 1.79861 0.432118
1 3.641 -0.134866 2.01555
2 3.68504 1.78944 2.40495
1 5.59522 1.75887 2.80425
1 3.68347 1.75703 4.38073
2 5.60175 1.78633 4.78085
1 5.63061 -0.116475 5.1863
1 5.60402 1.79449 6.76007
2 5.60991 -0.118608 7.16092
1 3.6903 -0.130384 7.54603
1 5.60595 -0.121092 9.13045
2 3.67865 -0.10961 9.5206
1 3.71317 1.79447 9.91081
1 3.70589 -0.110943 11.4982
2 3.71485 1.79381 11.8747
1 5.61908 1.79347 12.2693
1 3.71039 1.78416 13.8576
2 5.62393 1.79154 14.23
1 5.59281 -0.104535 14.6586
1 5.72877 1.7846 16.2284
2 5.31911 -0.0762478 16.545
1 3.54948 -0.0040837 17.0793
1 5.80076 -0.112348 18.3817
2 3.70683 -0.0950642 19.0146
1 3.80484 1.77413 19.4178
1 3.72496 -0.116963 20.9776
2 3.76392 1.7852 21.4163
1 5.63102 1.78421 21.8192
1 3.73797 1.78051 23.4274
2 5.62975 1.78999 23.791
1 5.61287 -0.124462 24.1694
1 5.62045 1.79626 25.7566
2 5.60632 -0.118666 26.1395
1 3.69353 -0.108331 26.523
1 5.59512 -0.129977 28.1158
2 3.68594 3.71258 0.037011
1 3.6928 5.61178 0.437821
1 3.72654 3.70995 2.01747
2 3.71432 5.61783 2.41825
1 5.65541 5.67101 2.81355
1 3.71898 5.60326 4.38737
2 5.61155 5.61715 4.79743
1 5.61151 3.69815 5.16731
1 5.60547 5.60599 6.76194
2 5.60956 3.70193 7.15793
1 3.6966 3.70112 7.5595
1 5.60941 3.71514 9.13613
2 3.67886 3.69894 9.52715
1 3.664 5.60769 9.93055
1 3.70485 3.70062 11.5025
2 3.70003 5.61708 11.9067
1 5.59934 5.61962 12.3045
1 3.69087 5.56665 13.8968
2 5.60295 5.60728 14.2802
1 5.5983 3.68792 14.6606
1 5.62142 5.53419 16.273
2 5.33916 3.64782 16.5417
1 3.56845 3.55475 17.0504
1 5.81224 3.67533 18.3749
2 3.70679 3.61697 18.9993
1 3.72894 5.47157 19.3949
1 3.75984 3.67687 20.9919
2 3.67984 5.60098 21.3544
1 5.58067 5.66235 21.7736
1 3.68199 5.62809 23.3253
2 5.59225 5.61037 23.7538
1 5.59693 3.70701 24.1635
1 5.57918 5.60708 25.7348
2 5.60317 3.70445 26.1465
1 3.69183 3.6824 26.5468
1 5.61677 3.74604 28.13
2 3.68036 7.50731 0.0184933
1 3.6682 9.41373 0.421517
1 3.70307 7.51303 1.99845
2 3.71366 9.4118 2.39888
1 5.65235 9.36407 2.80671
1 3.70167 9.43509 4.3634
2 5.60175 9.41727 4.78963
1 5.60893 7.51889 5.18243
1 5.60348 9.4278 6.75751
2 5.6098 7.51783 7.15134
1 3.70034 7.51303 7.5415
1 5.60807 7.50558 9.12339
2 3.70847 7.50872 9.51034
1 3.69975 9.42352 9.90504
1 3.74599 7.55193 11.4975
2 3.44363 9.42272 11.7907
1 3.91021 9.42432 13.6309
2 5.60546 9.4131 14.4742
1 5.60162 7.50716 14.731
1 5.6083 9.41562 16.3483
2 5.61522 7.47529 16.6809
1 3.70331 7.49935 17.0376
1 5.56408 7.55174 18.6432
2 3.69265 7.24356 18.9209
1 3.6803 7.68928 20.7644
2 3.72181 9.41477 21.5786
1 5.60956 9.42443 21.8313
1 3.71896 9.42849 23.4597
2 5.64095 9.43003 23.803
1 5.58955 7.51633 24.1467
1 5.62028 9.42645 25.7579
2 5.57769 7.51479 26.1004
1 3.67789 7.52111 26.5313
1 5.60989 7.51454 28.0639
2 3.70332 11.3303 0.0337736
1 3.70564 13.2491 0.426151
1 3.72067 11.3251 2.00776
2 3.70266 13.2484 2.39998
1 5.60529 13.2691 2.80391
1 3.69842 13.2433 4.38073
2 5.60799 13.2472 4.77736
1 5.61675 11.332 5.15949
1 5.60755 13.2436 6.74873
2 5.61044 11.3352 7.14005
1 3.69911 11.3402 7.53807
1 5.6091 11.3362 9.11486
2 3.7117 11.338 9.50756
1 3.69709 13.236 9.93136
1 3.76485 11.2884 11.4913
2 3.7105 13.2216 11.9002
1 5.6089 13.2377 12.3068
1 3.70656 13.2436 13.8774
2 5.60784 13.2335 14.2901
1 5.61438 11.3189 14.7188
1 5.60053 13.2513 16.2722
2 5.61343 11.3435 16.6739
1 3.70082 11.3532 17.0296
1 5.56382 11.2953 18.6339
2 3.69497 11.5977 18.9176
1 3.69293 13.3517 19.445
1 3.70738 11.1301 20.7561
2 3.69798 13.2431 21.3772
1 5.59077 13.2011 21.776
1 3.70086 13.2103 23.3425
2 5.60639 13.2451 23.764
1 5.62426 11.3404 24.1719
1 5.60984 13.2476 25.7487
2 5.61207 11.3359 26.1473
1 3.70591 11.3388 26.5429
1 5.62259 11.2898 28.1323
2 3.6829 15.1808 0.0304131
1 3.6271 17.117 0.439148
1 3.69876 15.1646 1.99629
2 3.6857 17.0624 2.41953
1 5.60192 17.0775 2.78789
1 3.69622 17.0601 4.38349
2 5.60533 17.0667 4.77229
1 5.6074 15.1573 5.17348
1 5.60871 17.0642 6.75213
2 5.6087 15.1539 7.15089
1 3.70012 15.1526 7.5507
1 5.60866 15.1451 9.13007
2 3.69866 15.1476 9.52874
1 3.70032 17.0599 9.92428
1 3.69968 15.1463 11.5039
2 3.70061 17.0608 11.8983
1 5.60914 17.062 12.2954
1 3.70138 17.0609 13.8743
2 5.60929 17.0645 14.2717
1 5.61022 15.1509 14.6736
1 5.60955 17.0678 16.2451
2 5.60912 15.162 16.6458
1 3.69839 15.1642 17.043
1 5.61098 15.1794 18.6182
2 3.69918 15.2159 19.0262
1 3.70206 17.0866 19.4292
1 3.70267 15.1819 21.0373
2 3.70215 17.0871 21.4043
1 5.61112 17.0733 21.7954
1 3.69542 17.0691 23.3746
2 5.60342 17.0665 23.7717
1 5.60392 15.1564 24.1663
1 5.5562 17.0839 25.7555
2 5.59664 15.1642 26.1398
1 3.68624 15.1604 26.5333
1 5.59328 15.1941 28.1157
2 3.96572 18.977 0.137855
1 3.63478 20.8382 0.445271
1 3.70258 18.977 2.0272
2 3.67971 20.8942 2.42308
1 5.59618 20.8809 2.78908
1 3.68771 20.9193 4.38874
2 5.60281 20.8834 4.77303
1 5.60119 18.9761 5.17176
1 5.60515 20.8825 6.7547
2 5.60808 18.9731 7.14995
1 3.69955 18.9749 7.5481
1 5.60848 18.9716 9.1272
2 3.69961 18.9728 9.52472
1 3.70571 20.8869 9.92226
1 3.702 18.9732 11.4989
2 3.7017 20.8871 11.8954
1 5.61003 20.8922 12.2971
1 3.70338 20.8826 13.8723
2 5.60862 20.8961 14.2766
1 5.61046 18.9796 14.67
1 5.61225 20.8945 16.2488
2 5.61007 18.9791 16.6441
1 3.70163 18.9734 17.0422
1 5.61073 18.9777 18.6202
2 3.70009 18.9846 19.0198
1 3.70433 20.8902 19.4126
1 3.69891 18.9888 21.0012
2 3.70083 20.8965 21.388
1 5.60728 20.8838 21.7914
1 3.69534 20.8905 23.3659
2 5.60234 20.879 23.7694
1 5.57236 18.9738 24.1868
1 5.55356 20.8617 25.7561
2 5.61935 18.973 26.1436
1 3.41245 18.9745 26.8039
1 5.70862 18.9748 28.0696
2 3.67928 22.7678 0.03611
1 3.65742 24.6922 0.451018
1 3.65653 22.8007 2.0132
2 3.69847 24.6965 2.4168
1 5.63444 24.6993 2.76178
1 3.80196 24.7015 4.3525
2 5.66793 24.7022 4.77128
1 5.63126 22.7895 5.17528
1 5.61777 24.7017 6.75342
2 5.60971 22.7924 7.15048
1 3.69621 22.8048 7.53384
1 5.60499 22.8034 9.12733
2 3.69759 22.7992 9.52183
1 3.66683 24.712 9.92
1 3.68507 22.8053 11.5056
2 3.68963 24.716 11.9042
1 5.60302 24.6986 12.2938
1 3.6825 24.7523 13.8932
2 5.61103 24.7139 14.2606
1 5.59963 22.8154 14.682
1 5.63266 24.7718 16.2477
2 5.6175 22.824 16.6475
1 3.71222 22.8033 17.0378
1 5.61504 22.8014 18.6248
2 3.70721 22.8044 19.0138
1 3.7228 24.7365 19.3747
1 3.6961 22.8101 20.9808
2 3.6959 24.7104 21.3797
1 5.60312 24.6946 21.7918
1 3.69112 24.719 23.3656
2 5.60329 24.6978 23.7684
1 5.6048 22.7855 24.1682
1 5.59831 24.697 25.7467
2 5.59113 22.7822 26.1408
1 3.6885 22.7894 26.5349
1 5.58768 22.7651 28.1247
2 7.5151 -0.139217 0.0152733
1 7.51298 1.76359 0.385551
1 7.52405 -0.138009 1.98963
2 7.51359 1.73107 2.39733
1 9.42861 1.76791 2.80318
1 7.51418 1.78459 4.37685
2 9.42693 1.79033 4.77244
1 9.42614 -0.119482 5.17113
1 9.42692 1.7939 6.74119
2 9.42256 -0.105919 7.13789
1 7.52395 -0.118147 7.5618
1 9.47411 -0.0545886 9.1224
2 7.53607 -0.106753 9.52598
1 7.52366 1.79504 9.92701
1 7.52086 -0.113869 11.4994
2 7.53471 1.79402 11.8962
1 9.44591 1.78917 12.3393
1 7.50932 1.79054 13.8615
2 9.38657 1.79132 14.2861
1 9.43643 -0.105535 14.665
1 9.29621 1.79202 16.2565
2 9.67955 -0.0885174 16.5499
1 9.20185 -0.110523 18.3818
2 7.50548 -0.106848 19.2253
1 7.50948 1.79231 19.5223
1 7.51883 -0.131117 21.1053
2 7.52737 1.7934 21.4801
1 9.43042 1.79321 21.801
1 7.52946 1.79406 23.4218
2 9.43371 1.79119 23.7765
1 9.43655 -0.120403 24.1625
1 9.42595 1.79445 25.751
2 9.42898 -0.118099 26.137
1 7.51589 -0.127699 26.5298
1 9.43024 -0.120343 28.1093
2 7.51317 3.70116 0.0470396
1 7.51649 5.81584 0.667121
1 7.5145 3.59567 1.97958
2 7.51831 5.35015 2.51017
1 9.38022 5.67284 2.812
1 7.51943 5.59916 4.40199
2 9.43175 5.61948 4.80057
1 9.4136 3.70581 5.15825
1 9.44175 5.60383 6.77748
2 9.42165 3.68992 7.13337
1 7.52188 3.70461 7.56056
1 9.47082 3.64003 9.11713
2 7.53812 3.69748 9.52824
1 7.54765 5.6085 9.92679
1 7.51836 3.70375 11.5025
2 7.50143 5.62375 11.8989
1 9.41068 5.59512 12.2926
1 7.49953 5.60423 13.8778
2 9.39137 5.60646 14.2697
1 9.42433 3.68874 14.666
1 9.36014 5.55364 16.2431
2 9.67839 3.67424 16.5493
1 9.20236 3.69722 18.3819
2 7.50729 3.69302 19.2266
1 7.4903 5.60311 19.4607
1 7.50817 3.72015 21.1055
2 7.50613 5.64403 21.4287
1 9.42788 5.61301 21.7854
1 7.50825 5.62389 23.3781
2 9.42875 5.6053 23.7578
1 9.42852 3.70202 24.1647
1 9.43607 5.6088 25.7332
2 9.42094 3.70498 26.1433
1 7.5127 3.74142 26.5624
1 9.4074 3.7447 28.1283
2 7.51309 7.51798 -0.170481
1 7.51611 9.21906 0.666869
2 7.51686 9.68616 2.50842
1 9.37986 9.36318 2.81125
1 7.51666 9.43422 4.3977
2 9.43035 9.4144 4.79499
1 9.42655 7.51532 5.19209
1 9.43241 9.42904 6.76156
2 9.4272 7.5206 7.16334
1 7.51803 7.51025 7.54339
1 9.41963 7.55021 9.13986
2 7.50791 7.51104 9.5104
1 7.52093 9.4259 9.90693
1 7.46006 7.55776 11.4925
2 7.77641 9.42426 11.7966
1 9.52824 9.43396 12.3348
1 7.30595 9.41272 13.6378
2 9.43215 9.41567 14.2663
1 9.3825 7.51831 14.6675
1 9.37915 9.41407 16.2294
2 9.40453 7.48843 16.6457
1 7.50527 7.48721 17.0652
1 9.41864 7.51194 18.6227
2 7.49867 7.5173 19.0335
1 7.51166 9.42497 19.4226
1 7.51996 7.53304 21.0064
2 7.51554 9.43207 21.4029
1 9.42943 9.42717 21.7856
1 7.53279 9.42759 23.3797
2 9.43396 9.43071 23.7625
1 9.45018 7.51605 24.1382
1 9.43626 9.42687 25.7354
2 9.44848 7.51692 26.0933
1 7.51417 7.51177 26.433
1 9.41518 7.51821 28.0589
2 7.5167 11.336 0.0461462
1 7.51058 13.2767 0.384144
1 7.51837 11.4405 1.97773
2 7.51707 13.3053 2.39667
1 9.4289 13.2689 2.8046
1 7.51773 13.2544 4.37921
2 9.42703 13.2459 4.77944
1 9.41876 11.331 5.16306
1 9.42818 13.2417 6.75279
2 9.42519 11.3345 7.15118
1 7.51896 11.3406 7.54043
1 9.42169 11.3301 9.13925
2 7.5067 11.3385 9.50884
1 7.52034 13.2358 9.93204
1 7.45423 11.2877 11.4938
2 7.50687 13.2216 11.901
1 9.41626 13.2145 12.2917
1 7.51192 13.2407 13.8794
2 9.41924 13.2331 14.2693
1 9.37905 11.3108 14.6604
1 9.43097 13.2369 16.2397
2 9.41564 11.3285 16.6442
1 7.51054 11.3446 17.0552
1 9.42046 11.3327 18.622
2 7.49887 11.3259 19.0215
1 7.49183 13.2376 19.4094
1 7.51975 11.3324 20.9953
2 7.50865 13.2382 21.3872
1 9.42386 13.2442 21.7856
1 7.5116 13.2514 23.3599
2 9.42313 13.2465 23.7634
1 9.42421 11.3404 24.164
1 9.41811 13.2427 25.7457
2 9.42585 11.3325 26.1432
1 7.51869 11.3032 26.5621
1 9.40992 11.2911 28.1285
2 7.51422 15.1788 0.0172038
1 7.54122 17.0751 0.422855
1 7.51433 15.1761 1.99526
2 7.51913 17.0738 2.40289
1 9.43029 17.0667 2.80331
1 7.51396 17.0647 4.37624
2 9.42705 17.0642 4.77737
1 9.42676 15.1556 5.17698
1 9.42634 17.0639 6.75362
2 9.42658 15.1532 7.15155
1 7.51718 15.1503 7.55121
1 9.42627 15.1528 9.12734
2 7.51865 15.1475 9.52921
1 7.51675 17.0597 9.92474
1 7.51809 15.1462 11.5044
2 7.51751 17.0606 11.8988
1 9.42537 17.0615 12.2962
1 7.51764 17.0646 13.8751
2 9.4266 17.0655 14.2721
1 9.42635 15.1508 14.6655
1 9.42755 17.064 16.2459
2 9.42876 15.1505 16.6416
1 7.52076 15.1516 17.0387
1 9.42519 15.1484 18.6209
2 7.5168 15.1522 19.0166
1 7.52137 17.0633 19.4166
1 7.5088 15.1484 20.9932
2 7.5175 17.0618 21.3924
1 9.42543 17.0611 21.789
1 7.51404 17.0697 23.3741
2 9.4266 17.0626 23.7633
1 9.42647 15.1529 24.1622
1 9.4384 17.0622 25.7377
2 9.42767 15.1536 26.1376
1 7.50992 15.1736 26.5286
1 9.43048 15.1584 28.1094
2 7.57816 18.9782 0.0178384
1 7.53559 20.8823 0.42991
1 7.52479 18.9766 2.0053
2 7.51621 20.882 2.4059
1 9.42719 20.8824 2.80481
1 7.51328 20.8806 4.37616
2 9.42672 20.8839 4.77734
1 9.42639 18.9734 5.17454
1 9.42686 20.8815 6.75228
2 9.427 18.973 7.15115
1 7.51716 18.9735 7.5484
1 9.42578 18.9703 9.12731
2 7.51709 18.9722 9.52567
1 7.51304 20.8843 9.92443
1 7.51717 18.9735 11.5013
2 7.51788 20.886 11.8999
1 9.4245 20.8801 12.3033
1 7.51719 20.8987 13.8797
2 9.42796 20.8954 14.2788
1 9.4259 18.9795 14.6717
1 9.42637 20.8966 16.2508
2 9.42751 18.9784 16.6445
1 7.51898 18.9758 17.0409
1 9.42758 18.9746 18.6203
2 7.51902 18.9738 19.0176
1 7.51945 20.885 19.4152
1 7.51823 18.9729 20.9936
2 7.51796 20.8771 21.3942
1 9.43038 20.8853 21.7891
1 7.51329 20.8729 23.3728
2 9.42843 20.8826 23.7608
1 9.4407 18.9729 24.1527
1 9.42824 20.8828 25.7338
2 9.45612 18.973 26.1232
1 7.55066 18.9739 26.488
1 9.45234 18.9712 28.0974
2 7.50284 22.7836 0.0265742
1 7.51727 24.6877 0.411597
1 7.51964 22.7873 2.00665
2 7.53907 24.6922 2.38984
1 9.43976 24.6984 2.79655
1 7.53997 24.7017 4.36972
2 9.4402 24.7017 4.78075
1 9.43066 22.794 5.17973
1 9.43669 24.7061 6.76737
2 9.42763 22.7908 7.1521
1 7.51771 22.7946 7.54861
1 9.4254 22.7705 9.12572
2 7.51737 22.796 9.5242
1 7.54496 24.7117 9.91671
1 7.52633 22.8008 11.5002
2 7.5252 24.7101 11.8938
1 9.44946 24.7473 12.2831
1 7.52021 24.7097 13.8633
2 9.42283 24.7137 14.2576
1 9.43812 22.8141 14.6764
1 9.36934 24.7623 16.2423
2 9.41952 22.8241 16.6452
1 7.5172 22.8119 17.0485
1 9.42744 22.8025 18.621
2 7.52064 22.8028 19.0292
1 7.51512 24.7158 19.4665
1 7.51848 22.7809 21.0052
2 7.51833 24.6741 21.4341
1 9.43403 24.6965 21.7903
1 7.51774 24.6809 23.3868
2 9.435 24.7011 23.7629
1 9.42017 22.7916 24.1526
1 9.42299 24.7022 25.7371
2 9.40155 22.7927 26.1228
1 7.4951 22.7798 26.5274
1 9.40504 22.7929 28.0966
2 11.3406 -0.117638 0.0313302
1 11.3337 1.79515 0.427867
1 11.3455 -0.116214 2.00722
2 11.3352 1.7941 2.40415
1 13.2443 1.79406 2.79824
1 11.3373 1.79494 4.38052
2 13.2457 1.79198 4.77329
1 13.2503 -0.118785 5.16747
1 13.2461 1.79107 6.74666
2 13.2487 -0.108563 7.13596
1 11.3358 -0.126414 7.53476
1 13.1984 -0.0526842 9.12021
2 11.3366 -0.3733 9.42869
1 11.3511 0.0950271 11.2736
2 11.3474 1.79379 12.1232
1 13.2505 1.82263 12.36
1 11.3412 1.8014 14.0082
2 13.3051 1.78834 14.3085
1 13.2638 -0.116491 14.676
1 13.3063 1.79075 16.2507
2 13.3104 -0.104311 16.6534
1 11.4396 -0.0949035 17.0808
1 13.3148 -0.0378608 18.6677
2 11.3625 -0.0983238 19.0081
1 11.2519 1.79274 19.3925
1 11.3095 -0.106713 20.9642
2 11.3376 1.79147 21.3953
1 13.2521 1.79636 21.8359
1 11.3296 1.79061 23.3763
2 13.2224 1.78844 23.8095
1 13.231 -0.122414 24.1738
1 13.2264 1.78712 25.7672
2 13.2535 -0.131188 26.1434
1 11.3427 -0.129883 26.5352
1 13.2565 -0.150611 28.1194
2 11.3274 3.70662 0.0341873
1 11.3346 5.6147 0.427045
1 11.3056 3.70915 2.01207
2 11.3131 5.61911 2.40472
1 13.2377 5.60991 2.80039
1 11.3272 5.60598 4.37375
2 13.237 5.60745 4.77953
1 13.2495 3.70144 5.17027
1 13.2331 5.60503 6.76594
2 13.2502 3.69093 7.14063
1 11.3388 3.70388 7.53372
1 13.2034 3.64758 9.13284
2 11.3347 3.95519 9.42301
1 11.3207 5.70895 9.95609
1 11.3189 3.4836 11.263
2 11.2714 5.6115 11.8963
1 13.1203 5.54833 12.315
1 11.2992 5.56666 13.9086
2 13.2489 5.59762 14.2538
1 13.3311 3.70878 14.6482
1 13.3132 5.59751 16.2306
2 13.3082 3.68553 16.6312
1 11.4418 3.68321 17.0697
1 13.323 3.62984 18.6449
2 11.3684 3.68121 19.002
1 11.3199 5.57717 19.3912
1 11.3108 3.68873 20.9613
2 11.3424 5.59434 21.3811
1 13.2647 5.55283 21.7707
1 11.3447 5.60478 23.3538
2 13.252 5.60191 23.7589
1 13.2361 3.69797 24.1696
1 13.2496 5.60806 25.7393
2 13.243 3.70062 26.1434
1 11.3289 3.69914 26.5428
1 13.2416 3.70266 28.1178
2 11.3293 7.51869 0.017983
1 11.3355 9.4225 0.42703
1 11.3294 7.51821 1.99809
2 11.3141 9.41719 2.40361
1 13.2411 9.42794 2.79624
1 11.3289 9.42782 4.37111
2 13.2422 9.42425 4.77307
1 13.2365 7.51465 5.17739
1 13.242 9.42622 6.75197
2 13.2441 7.51767 7.15468
1 11.3365 7.52682 7.55942
1 13.2525 7.5311 9.13614
2 11.3367 7.57601 9.53486
1 11.3481 9.44833 9.93674
1 11.3386 7.54432 11.5404
2 11.3987 9.44693 11.9225
1 13.2781 9.40045 12.3066
1 11.3708 9.42403 13.9232
2 13.2742 9.41466 14.2842
1 13.2848 7.48737 14.654
1 13.2436 9.41647 16.2473
2 13.2435 7.50835 16.638
1 11.3208 7.47975 17.0236
1 13.2306 7.52351 18.6122
2 11.3262 7.50432 19.0099
1 11.3284 9.42108 19.4104
1 11.3487 7.50178 20.9826
2 11.3317 9.41983 21.3855
1 13.2318 9.43313 21.7843
1 11.3359 9.42898 23.3671
2 13.2368 9.4269 23.765
1 13.2519 7.51141 24.1556
1 13.2451 9.42782 25.7404
2 13.2532 7.51782 26.1347
1 11.3491 7.51721 26.5229
1 13.2502 7.52379 28.1131
2 11.3312 11.3292 0.0356636
1 11.3316 13.2393 0.428882
1 11.3064 11.3271 2.01305
2 11.3351 13.2429 2.40468
1 13.2445 13.2426 2.80069
1 11.336 13.2423 4.38248
2 13.2391 13.2446 4.77987
1 13.2442 11.3328 5.17494
1 13.2452 13.2451 6.75472
2 13.2445 11.3354 7.15084
1 11.3328 11.3385 7.54994
1 13.2476 11.3376 9.12521
2 11.3377 11.3456 9.52506
1 11.333 13.2484 9.91981
1 11.3647 11.3476 11.5076
2 11.3333 13.2482 11.8993
1 13.2459 13.2491 12.2972
1 11.3291 13.2366 13.8744
2 13.2432 13.2445 14.2712
1 13.253 11.3342 14.6694
1 13.2418 13.2436 16.2471
2 13.2405 11.3318 16.6438
1 11.3265 11.3244 17.038
1 13.2398 11.3405 18.6177
2 11.3313 11.334 19.0167
1 11.3341 13.2443 19.4147
1 11.3337 11.3347 20.9914
2 11.3353 13.2448 21.3911
1 13.2445 13.2478 21.7905
1 11.3347 13.2456 23.3676
2 13.2458 13.247 23.767
1 13.2445 11.339 24.1671
1 13.2555 13.2464 25.7455
2 13.2493 11.3364 26.1453
1 11.3346 11.3423 26.5453
1 13.2507 11.3347 28.121
2 11.3422 15.1531 0.0319626
1 11.3502 17.0655 0.427072
1 11.3404 15.1544 2.00539
2 11.3405 17.0632 2.40413
1 13.2538 17.066 2.79433
1 11.3403 17.0631 4.37866
2 13.2526 17.0644 4.77216
1 13.2465 15.1567 5.17392
1 13.2473 17.0649 6.75043
2 13.2456 15.1557 7.15045
1 11.3363 15.1551 7.54805
1 13.2462 15.154 9.12721
2 11.336 15.1548 9.52427
1 11.3369 17.0608 9.92207
1 11.3306 15.152 11.5034
2 11.3356 17.0579 11.9001
1 13.2459 17.0621 12.2955
1 11.3355 17.0636 13.8756
2 13.2451 17.0649 14.2718
1 13.2434 15.154 14.6687
1 13.2449 17.065 16.2475
2 13.2448 15.1543 16.6445
1 11.3356 15.1545 17.0421
1 13.2447 15.1547 18.6208
2 11.3354 15.1545 19.018
1 11.3363 17.065 19.4154
1 11.3365 15.1549 20.9937
2 11.3367 17.0653 21.3915
1 13.2466 17.0653 21.792
1 11.3371 17.0634 23.3671
2 13.2446 17.0672 23.7688
1 13.2475 15.1561 24.1662
1 13.2493 17.066 25.745
2 13.2533 15.1573 26.1428
1 11.3423 15.1509 26.5378
1 13.258 15.1616 28.1193
2 11.354 18.9751 0.0308434
1 11.3171 20.8811 0.431671
1 11.3416 18.9724 2.00909
2 11.3363 20.8822 2.40442
1 13.252 20.8895 2.7882
1 11.3392 20.8835 4.3765
2 13.2405 20.8859 4.77448
1 13.2462 18.9727 5.1708
1 13.2451 20.8821 6.75183
2 13.2459 18.9735 7.14856
1 11.3367 18.9729 7.54895
1 13.2473 18.9722 9.12612
2 11.3369 18.9645 9.52692
1 11.3357 20.8626 9.93729
1 11.3358 18.9617 11.51
2 11.3357 20.8617 11.9141
1 13.2478 20.8805 12.2979
1 11.3383 20.8831 13.8849
2 13.2475 20.8891 14.2734
1 13.2427 18.9754 14.6706
1 13.2503 20.894 16.2465
2 13.2442 18.9781 16.6441
1 11.3365 18.9778 17.0418
1 13.2463 18.9793 18.6229
2 11.3363 18.9762 19.0181
1 11.3338 20.889 19.4135
1 11.3368 18.9765 20.9931
2 11.3387 20.8902 21.3896
1 13.2456 20.882 21.7896
1 11.3434 20.8944 23.371
2 13.2536 20.8853 23.7692
1 13.2428 18.9788 24.1703
1 13.2962 20.9014 25.7544
2 13.2609 18.9805 26.1426
1 11.3606 18.9819 26.5311
1 13.2691 19.0042 28.1263
2 11.2758 22.7922 0.0225904
1 11.3152 24.7036 0.431089
1 11.3287 22.7913 2.00543
2 11.3423 24.702 2.40397
1 13.2518 24.6931 2.78862
1 11.3439 24.7025 4.37892
2 13.2474 24.7019 4.77745
1 13.2469 22.7966 5.1776
1 13.2375 24.706 6.76565
2 13.2467 22.7913 7.15138
1 11.3375 22.7837 7.55244
1 13.2488 22.77 9.12739
2 11.337 22.735 9.53582
1 11.3401 24.601 9.95983
1 11.3373 22.7651 11.5474
2 11.3428 24.7 11.8958
1 13.2339 24.7436 12.2957
1 11.341 24.7493 13.8684
2 13.2685 24.7175 14.2729
1 13.2681 22.8101 14.6631
1 13.2817 24.7126 16.2607
2 13.2579 22.8019 16.6425
1 11.3334 22.8312 17.0321
1 13.2502 22.7716 18.6108
2 11.3378 22.8043 19.0108
1 11.3244 24.7317 19.3921
1 11.3523 22.8067 20.9832
2 11.3433 24.7149 21.3812
1 13.2595 24.749 21.7716
1 11.3484 24.6919 23.3605
2 13.2488 24.7031 23.7643
1 13.2925 22.7946 24.1808
1 13.2922 24.6818 25.7522
2 13.2476 22.7919 26.1517
1 11.3087 22.7925 26.4917
1 13.1418 22.7928 28.0859
2 15.1666 -0.139746 0.027664
1 15.1486 1.78243 0.427813
1 15.1611 -0.129922 1.99972
2 15.1531 1.78362 2.40118
1 17.0602 1.78554 2.80457
1 15.1545 1.78641 4.3787
2 17.0641 1.78937 4.77973
1 17.0684 -0.121472 5.17454
1 17.0553 1.78942 6.75671
2 17.0596 -0.118771 7.15586
1 15.147 -0.119443 7.55866
1 17.0573 -0.109236 9.13204
2 15.132 -0.100582 9.52497
1 15.139 1.80136 9.93626
1 15.1503 -0.104928 11.4971
2 15.152 1.80222 11.8989
1 17.0635 1.80408 12.2866
1 15.2221 1.72335 13.8807
2 17.0726 2.06332 14.1781
1 17.0829 1.5962 16.0238
2 17.0783 -0.125049 16.8083
1 15.1916 -0.114378 17.0963
1 17.0783 -0.120529 18.6967
2 15.1735 -0.372203 18.9734
1 15.1503 0.0803877 20.8
2 15.1582 1.79101 21.6095
1 17.0614 1.74904 21.8564
1 15.1544 1.79944 23.4822
2 17.1 1.8012 23.8184
1 17.0896 -0.101734 24.161
1 17.0814 1.79937 25.7681
2 17.0748 -0.118098 26.1286
1 15.1609 -0.121663 26.5279
1 17.0637 -0.0956811 28.0945
2 15.1477 3.69693 0.0338397
1 15.1515 5.6113 0.430024
1 15.152 3.6973 2.00653
2 15.1494 5.61049 2.40443
1 17.0578 5.60768 2.80576
1 15.1488 5.61132 4.38177
2 17.061 5.60866 4.77767
1 17.0588 3.69858 5.17682
1 17.062 5.60911 6.75103
2 17.0598 3.70114 7.15077
1 15.1464 3.6985 7.5521
1 17.0569 3.7014 9.12233
2 15.1457 3.68652 9.51519
1 15.1091 5.59491 9.90199
1 15.2224 3.73895 11.5099
2 14.8813 5.60072 11.796
1 15.3551 5.63421 13.6354
2 17.0585 5.67253 14.4983
1 17.0687 3.80883 14.739
1 17.055 5.62945 16.3959
2 17.0767 3.63706 16.654
1 15.1892 3.6566 17.0311
1 17.0216 3.58044 18.6093
2 15.1786 3.95456 18.9217
1 15.1682 5.71015 19.4457
1 15.1827 3.49129 20.7682
2 15.1635 5.61031 21.3812
1 17.061 5.58569 21.7882
1 15.1624 5.56692 23.3433
2 17.0893 5.5991 23.7619
1 17.0937 3.70231 24.1712
1 17.0688 5.60187 25.7415
2 17.0756 3.70291 26.1549
1 15.1546 3.69974 26.5376
1 17.0525 3.7011 28.1265
2 15.1632 7.52198 0.0278032
1 15.1888 9.43694 0.42254
1 15.1623 7.52513 2.00482
2 15.1601 9.43486 2.40038
1 17.0813 9.47229 2.78684
1 15.1564 9.42029 4.37084
2 17.0661 9.43168 4.77191
1 17.0717 7.52203 5.16712
1 17.0675 9.42507 6.75145
2 17.0649 7.51657 7.1437
1 15.1541 7.51926 7.53854
1 17.0616 7.50827 9.11839
2 15.1635 7.51555 9.50803
1 15.156 9.41627 9.93226
1 15.2125 7.46169 11.4889
2 15.1745 9.40127 11.9002
1 17.0666 9.41895 12.3041
1 15.1711 9.42515 13.8847
2 17.0699 9.43058 14.289
1 17.0669 7.53547 14.744
1 17.0665 9.45398 16.2726
2 17.0656 7.56277 16.7068
1 15.1532 7.53917 17.0549
1 17.0708 7.58064 18.6562
2 15.1468 7.5766 19.0301
1 15.1361 9.44969 19.4225
1 15.143 7.54328 21.0353
2 15.1339 9.44859 21.3929
1 17.0386 9.43045 21.7493
1 15.1365 9.43121 23.3654
2 17.0081 9.42198 23.7629
1 17.0613 7.50496 24.1589
1 17.0749 9.42296 25.7513
2 17.0747 7.50791 26.1325
1 15.159 7.5191 26.5306
1 17.0745 7.49825 28.0974
2 15.1791 11.3482 0.0328291
1 15.158 13.2477 0.43998
1 15.1555 11.3419 2.00802
2 15.1618 13.2501 2.41692
1 17.0714 13.2344 2.86315
1 15.1409 13.249 4.39407
2 17.0386 13.2468 4.82606
1 17.0545 11.3357 5.18216
1 17.0423 13.2465 6.77827
2 17.0646 11.3326 7.15649
1 15.1544 11.3279 7.55093
1 17.0644 11.3241 9.13242
2 15.1547 11.3289 9.52827
1 15.1554 13.2412 9.92401
1 15.1574 11.3289 11.503
2 15.1547 13.2423 11.8985
1 17.0642 13.2435 12.2945
1 15.1544 13.2456 13.8739
2 17.064 13.2457 14.2703
1 17.066 11.3402 14.6699
1 17.0647 13.247 16.2488
2 17.0647 11.3498 16.6508
1 15.1522 11.3405 17.0437
1 17.0693 11.3334 18.6278
2 15.1536 11.3465 19.0182
1 15.1563 13.2492 19.4141
1 15.1488 11.3507 20.9999
2 15.1571 13.2517 21.3937
1 17.0711 13.2376 21.7895
1 15.1557 13.2512 23.3674
2 17.0682 13.2448 23.7609
1 17.0366 11.3358 24.1598
1 17.0684 13.2454 25.7316
2 17.0587 11.3446 26.1224
1 15.1623 11.3319 26.5467
1 17.1153 11.4008 28.1024
2 15.1824 15.1511 0.0305109
1 15.2203 17.0741 0.413093
1 15.1663 15.1615 2.00433
2 15.1711 17.0729 2.39222
1 17.0964 17.0689 2.77666
1 15.1657 17.0683 4.36421
2 17.0703 17.0643 4.76973
1 17.0637 15.1594 5.17534
1 17.0703 17.0642 6.75019