1769
Atoms. Timestep: 434
2 -0.183661 -0.184341 0.229303
1 -0.188395 1.73476 0.610491
1 -0.185818 -0.180093 2.18236
2 -0.186931 1.73399 2.56882
1 1.7325 1.73282 2.95625
1 -0.186161 1.73381 4.52451
2 1.73207 1.73516 4.91075
1 1.73578 -0.177751 5.29617
1 1.73262 1.7335 6.86572
2 1.73139 -0.183158 7.25168
1 -0.186197 -0.18634 7.6379
1 1.73242 -0.185346 9.20442
2 -0.184706 -0.181956 9.59057
1 -0.185668 1.73386 9.97677
1 -0.188259 -0.177264 11.5466
2 -0.185539 1.73698 11.9301
1 1.73561 1.7401 12.3233
1 -0.193184 1.73004 13.8842
2 1.6867 1.68748 14.2703
1 1.72974 -0.18804 14.6608
1 1.74078 1.72892 16.22
2 1.73393 -0.186272 16.6154
1 -0.188022 -0.183869 16.9993
1 1.7319 -0.185388 18.5658
2 -0.192511 -0.188134 18.9514
1 -0.187592 1.72522 19.3381
1 -0.185469 -0.186726 20.9085
2 -0.18262 1.73021 21.2948
1 1.73065 1.73305 21.6796
1 -0.195214 1.73352 23.2626
2 1.73449 1.73349 23.6301
1 1.73382 -0.185015 24.0167
1 1.72558 1.72592 25.5841
2 1.72675 -0.186037 25.973
1 -0.219599 -0.134479 26.3444
1 1.72975 -0.187501 27.9233
2 -0.184136 3.65576 0.233227
1 -0.186213 5.57262 0.617474
1 -0.185859 3.65275 2.18467
2 -0.186301 5.57709 2.5706
1 1.73212 5.57327 2.95466
1 -0.187809 5.57258 4.52661
2 1.73315 5.57092 4.91031
1 1.73268 3.65198 5.29722
1 1.73278 5.57054 6.86433
2 1.73316 3.65182 7.25142
1 -0.18626 3.65177 7.63712
1 1.73403 3.65162 9.20645
2 -0.18567 3.65233 9.59143
1 -0.185374 5.57055 9.98071
1 -0.185299 3.65424 11.5468
2 -0.183838 5.56939 11.9499
1 1.74453 5.571 12.3312
1 -0.20583 5.57105 13.9623
2 1.65664 5.5696 14.2477
1 1.86244 3.6528 14.6465
1 1.60859 5.56975 16.2304
2 1.74554 3.60167 16.6381
1 -0.188213 3.78978 16.9864
1 1.73113 3.65761 18.5629
2 -0.188422 3.61885 18.9781
1 -0.185723 5.56897 19.2578
1 -0.186752 3.6519 20.9114
2 -0.188003 5.56885 21.2698
1 1.73232 5.5698 21.673
1 -0.195835 5.56996 23.2399
2 1.697 5.57634 23.6082
1 1.73972 3.65589 24.0237
1 1.86239 5.57197 25.5962
2 1.67993 3.60581 25.9723
1 -0.225517 3.5967 26.3455
1 1.73302 3.65998 27.9168
2 -0.183916 7.4867 0.228728
1 -0.208568 9.40688 0.633884
1 -0.236808 7.52217 2.19709
2 -0.00861826 9.40625 2.52965
1 1.77515 9.40686 2.96176
1 -0.24175 9.40824 4.41746
2 1.7219 9.40683 4.90672
1 1.72827 7.49263 5.29658
1 1.72629 9.40728 6.86131
2 1.7365 7.48854 7.25207
1 -0.179434 7.49232 7.63338
1 1.73291 7.49038 9.20779
2 -0.19234 7.49049 9.59037
1 -0.190535 9.41674 9.99312
1 -0.181705 7.4821 11.5464
2 -0.147 9.36452 11.9513
1 1.73007 9.40283 12.3195
1 -0.193913 9.41594 13.9578
2 1.72331 9.45927 14.2447
1 1.85551 7.49159 14.6518
1 1.60419 9.40792 16.2362
2 1.80825 7.49003 16.6357
1 -0.186826 7.48729 16.9474
1 1.72053 7.49001 18.5533
2 -0.188339 7.48518 19.0212
1 -0.185321 9.41091 19.2236
1 -0.186019 7.49867 20.9328
2 -0.185795 9.40823 21.1112
1 1.62745 9.40744 21.7738
2 1.90305 9.40597 23.6659
1 1.68716 7.51875 24.0109
1 1.70585 9.4141 25.5666
2 1.68932 7.53298 25.9737
1 -0.192423 7.4954 26.3542
1 1.73401 7.48497 27.9226
2 -0.183674 11.3265 0.226718
1 -0.174451 13.2387 0.626276
1 -0.244626 11.2888 2.19887
2 -0.240844 13.1938 2.57167
1 1.72737 13.3785 2.94288
1 -0.187741 13.2472 4.5173
2 1.73045 13.2128 4.93274
1 1.72783 11.3176 5.29791
1 1.74179 13.2414 6.86863
2 1.73596 11.3234 7.25227
1 -0.189597 11.3236 7.63025
1 1.73624 11.3273 9.20578
2 -0.154655 11.3255 9.56587
1 -0.217391 13.2418 10.0117
1 -0.361438 11.3694 11.5766
2 -0.00221477 13.2257 11.8966
1 1.78211 13.4003 12.314
1 -0.302014 13.2436 13.7693
2 1.70835 13.2141 14.287
1 1.71851 11.3329 14.6673
1 1.78104 13.284 16.2342
2 1.78017 11.38 16.6139
1 -0.185269 11.194 16.9772
1 1.72169 11.3157 18.5606
2 -0.186964 11.3655 18.9741
1 -0.175241 13.2588 19.3467
1 -0.189086 11.3104 20.9229
2 -0.23278 13.2019 21.2942
1 1.72953 13.3758 21.6641
1 -0.183797 13.2481 23.24
2 1.73016 13.2078 23.6577
1 1.68234 11.2903 24.0069
1 1.73338 13.247 25.588
2 1.73564 11.3291 25.9757
1 -0.186404 11.324 26.3534
1 1.73153 11.3249 27.9277
2 -0.171819 15.1156 0.205522
1 -0.314742 17.0748 0.611129
1 -0.0603766 15.1705 2.1965
2 -0.203875 17.1308 2.62137
1 1.76262 16.9879 2.93159
1 -0.183142 17.0797 4.59904
2 1.76961 17.1115 4.91441
1 1.73036 15.1683 5.22203
1 1.60431 17.0759 6.88518
2 1.73414 15.1122 7.23915
1 -0.190497 15.2928 7.62057
1 1.73579 15.1806 9.27396
2 -0.212575 15.1322 9.58445
1 -0.234339 17.0906 9.89217
1 -0.0656081 15.147 11.5734
2 -0.251298 17.1317 11.9068
1 1.60887 16.9689 12.3245
1 -0.184525 17.0805 13.8841
2 1.73307 17.1244 14.2331
1 1.76895 15.1704 14.6117
1 1.87858 17.0529 16.266
2 1.51443 15.1326 16.5642
1 -0.234548 15.1673 17.0038
1 1.83507 15.1772 18.5168
2 -0.206373 15.1678 18.9256
1 -0.175358 17.0857 19.327
1 -0.0499056 15.1683 20.9082
2 -0.233046 17.1247 21.2915
1 1.73506 16.9534 21.6579
1 -0.184092 17.0765 23.2409
2 1.73278 17.1128 23.6515
1 1.73226 15.163 23.9407
1 1.73394 17.0751 25.5879
2 1.73213 15.1644 25.9707
1 -0.189332 15.1709 26.3623
1 1.7441 15.1649 28.003
2 -0.184836 19.0005 0.228046
1 -0.0552695 20.9294 0.60173
1 -0.187105 18.9996 2.17213
2 -0.218485 20.8873 2.5691
1 1.76645 20.8726 2.8688
1 -0.185692 21.0507 4.53692
2 1.74189 20.8759 4.87461
1 1.73169 19.0057 5.31082
1 1.85535 20.9264 6.96211
2 1.72326 18.9783 7.23203
1 -0.309607 18.8762 7.74208
1 1.76906 19.1219 9.18998
2 -0.00269473 18.9286 9.65015
1 -0.24152 20.8799 9.91543
1 -0.22474 19.0179 11.5096
2 -0.235817 20.8803 12
1 1.72414 21.051 12.2087
1 -0.17105 20.9219 13.8948
2 1.74127 20.8874 14.2859
1 1.715 18.9941 14.6966
1 1.67615 20.8999 16.2386
2 1.86085 19.0478 16.5866
1 1.63129 18.9957 18.4638
2 -0.184305 18.9986 19.101
1 -0.188765 20.9114 19.3177
1 -0.189113 19.0096 20.9445
2 -0.185652 20.9274 21.2908
1 1.73251 20.9216 21.6787
1 -0.185369 20.9222 23.2472
2 1.73297 20.9214 23.6515
1 1.7316 19.009 24.0179
1 1.73212 20.9205 25.6708
2 1.72885 18.9703 25.9502
1 -0.182919 19.0014 26.372
1 1.75138 19.1346 27.956
2 -0.236395 22.8853 0.251983
1 -0.190652 24.7653 0.612616
1 -0.176474 22.8349 2.26032
2 -0.184344 24.7904 2.5485
1 1.72876 24.7528 2.96397
1 -0.184644 24.6266 4.53929
2 1.7796 24.8061 4.90893
1 1.60973 22.8299 5.28849
1 1.72255 24.7674 6.85827
2 1.72521 22.9186 7.27329
1 -0.185922 22.8289 7.57207
1 1.72764 22.699 9.30495
2 -0.2188 22.942 9.54177
1 -0.176934 24.7714 9.98356
1 -0.0536155 22.8227 11.5323
2 -0.231711 24.8032 11.9315
1 1.7306 24.6438 12.3084
1 -0.183279 24.7504 13.8783
2 1.73301 24.7895 14.2965
1 1.73616 22.835 14.5728
1 1.73284 24.7556 16.2288
2 1.72993 22.8352 16.59
1 -0.187567 22.8331 17.0007
1 1.7315 22.8405 18.5628
2 -0.191634 22.841 18.9516
1 -0.190519 24.7589 19.3387
1 -0.184616 22.8377 20.9031
2 -0.190525 24.7576 21.2915
1 1.73178 24.759 21.6734
1 -0.184627 24.7628 23.2439
2 1.7248 24.7609 23.6287
1 1.73237 22.8375 24.0153
1 1.73044 24.7663 25.5836
2 1.734 22.8732 25.9473
1 -0.173877 22.8335 26.3686
1 1.73934 22.7096 27.9398
2 3.65079 -0.18481 0.230367
1 3.65135 1.72742 0.619704
1 3.64988 -0.186881 2.18665
2 3.65178 1.73087 2.5738
1 5.57059 1.73302 2.95671
1 3.6517 1.73211 4.52553
2 5.57099 1.7329 4.91077
1 5.5703 -0.185521 5.29662
1 5.56991 1.73301 6.8645
2 5.57049 -0.181909 7.25029
1 3.65038 -0.186729 7.63535
1 5.56269 -0.19045 9.20526
2 3.6475 -0.184757 9.58714
1 3.65021 1.73441 9.97331
1 3.65487 -0.183046 11.5428
2 3.65016 1.70251 11.908
1 5.56183 1.73825 12.3265
1 3.64942 1.87089 13.9
2 5.61254 1.68665 14.2745
1 5.57234 -0.193497 14.6563
1 5.56476 1.73569 16.2205
2 5.56939 -0.184167 16.6128
1 3.65154 -0.186893 16.9979
1 5.5703 -0.186238 18.5671
2 3.65073 -0.185628 18.9516
1 3.65016 1.73498 19.336
1 3.65575 -0.190011 20.9066
2 3.6513 1.73299 21.2909
1 5.56937 1.73425 21.6769
1 3.65317 1.7297 23.2459
2 5.5677 1.72517 23.6311
1 5.62178 -0.220104 24.0045
1 5.57118 1.7222 25.5828
2 5.56765 -0.186509 25.973
1 3.65171 -0.18891 26.3554
1 5.57052 -0.186255 27.9251
2 3.65111 3.61972 0.254074
1 3.65184 5.57033 0.537156
1 3.65145 3.65314 2.18762
2 3.65162 5.57016 2.55105
1 5.56904 5.57038 2.95595
1 3.65134 5.57054 4.52178
2 5.56977 5.57052 4.91042
1 5.57063 3.65148 5.29726
1 5.57147 5.56893 6.86483
2 5.57024 3.64989 7.25058
1 3.65112 3.65111 7.63936
1 5.56199 3.65449 9.20597
2 3.64958 3.64874 9.6091
1 3.6518 5.57074 9.96491
1 3.65121 3.64912 11.627
2 3.65407 5.57101 11.8641
1 5.5612 5.57608 12.3337
1 3.65209 5.57198 13.9343
2 5.67846 5.56944 14.278
1 5.43668 3.65086 14.6419
1 5.55635 5.57065 16.2121
2 5.60231 3.65205 16.6357
1 3.6576 3.64977 16.9188
1 5.56916 3.65201 18.569
2 3.65134 3.65425 18.9328
1 3.65103 5.57154 19.3387
1 3.65256 3.65399 20.9038
2 3.651 5.57269 21.31
1 5.571 5.57567 21.6783
1 3.64279 5.57047 23.3258
2 5.55494 5.52243 23.6046
1 5.56123 3.64671 24.0242
1 5.44492 5.5728 25.5932
2 5.61605 3.60531 25.9723
1 3.65194 3.7823 26.3439
1 5.56627 3.65778 27.9201
2 3.65017 7.52038 0.257104
1 3.65072 9.41297 0.618139
1 3.65116 7.48667 2.1878
2 3.66106 9.40809 2.57388
1 5.57129 9.40853 2.95784
1 3.65287 9.40813 4.52899
2 5.57052 9.41298 4.91281
1 5.5702 7.48956 5.29697
1 5.57209 9.39997 6.8669
2 5.56974 7.48429 7.25267
1 3.65169 7.48899 7.6403
1 5.57181 7.49492 9.21011
2 3.65116 7.49095 9.6082
1 3.65368 9.40619 9.97085
1 3.6588 7.49428 11.6286
2 3.61425 9.43635 11.8942
1 5.48623 9.40564 12.3317
1 3.66029 9.26828 13.8862
2 5.61646 9.45213 14.259
1 5.44017 7.49246 14.636
1 5.57214 9.4005 16.2146
2 5.60373 7.48824 16.6362
1 3.67115 7.4886 16.9203
1 5.5711 7.48791 18.5708
2 3.65032 7.48588 18.9329
1 3.64274 9.39752 19.3409
1 3.64606 7.49114 20.9041
2 3.63503 9.40389 21.2945
1 5.57412 9.40223 21.6804
1 3.6832 9.41143 23.2349
2 5.53404 9.45364 23.6306
1 5.70138 7.48659 24.0103
1 5.57857 9.41255 25.5789
2 5.58243 7.53781 25.9983
1 3.64681 7.36149 26.3453
1 5.56824 7.4832 27.924
2 3.65038 11.3285 0.228532
1 3.64888 13.2506 0.619175
1 3.65433 11.3208 2.18332
2 3.6946 13.1925 2.57218
1 5.57469 13.2532 2.959
1 3.65015 13.2599 4.52353
2 5.57075 13.2484 4.92055
1 5.57024 11.3326 5.30524
1 5.57016 13.1647 6.85543
2 5.57038 11.2884 7.2631
1 3.65455 11.3354 7.63477
1 5.57286 11.3238 9.21064
2 3.65085 11.3302 9.58705
1 3.64857 13.2441 9.97456
1 3.66059 11.3196 11.5434
2 3.70745 13.1819 11.9414
1 5.58215 13.2326 12.3206
1 3.64895 13.2535 13.8933
2 5.57029 13.2483 14.287
1 5.5799 11.3362 14.6536
1 5.51599 13.2757 16.3197
2 5.56606 11.2989 16.5882
1 3.66073 11.3389 17.0058
1 5.57175 11.4577 18.5811
2 3.6053 11.2786 18.9509
1 3.77591 13.2537 19.3152
1 3.65732 11.3197 20.898
2 3.66332 13.1916 21.321
1 5.57551 13.2444 21.5936
1 3.64799 13.2469 23.2455
2 5.57051 13.2496 23.6117
1 5.56661 11.3374 24.0161
1 5.57206 13.2477 25.5855
2 5.57226 11.3287 25.9726
1 3.6514 11.3253 26.3544
1 5.57 11.3295 27.9266
2 3.68946 15.1807 0.212126
1 3.65236 17.1728 0.719249
1 3.51904 15.1338 2.19606
2 3.70595 16.9581 2.60098
1 5.55386 17.132 2.93025
1 3.65885 17.0945 4.49976
2 5.5676 17.0787 4.9222
1 5.56904 15.166 5.16968
1 5.56696 17.16 6.85849
1 3.5732 15.1687 7.64898
1 5.57682 15.167 9.32443
2 3.69052 15.1583 9.5828
1 3.65272 17.0662 9.86369
1 3.54081 15.0494 11.5196
1 5.68856 17.1969 12.3281
1 3.65106 17.0847 14.1144
2 5.57585 17.0424 14.236
1 5.5323 15.1588 14.6836
1 5.38386 17.0258 16.2511
2 5.7985 15.1561 16.5449
1 5.45594 15.0364 18.4616
2 3.64304 15.1818 19.1126
1 3.64155 17.0799 19.2408
1 3.52853 15.1631 20.9565
2 3.69701 17.1321 21.274
1 5.56847 17.083 21.6762
1 3.64804 17.0786 23.2377
2 5.57033 17.0833 23.6356
1 5.5724 15.1644 24.0159
1 5.57172 17.0846 25.5933
2 5.56838 15.1615 25.9645
1 3.65101 15.1675 26.3604
1 5.59763 15.2198 27.9346
2 3.70067 18.9515 0.0814855
1 3.51834 20.8115 0.705806
2 3.6802 21.0981 2.65366
1 5.54591 20.8655 2.94319
1 3.65392 20.8962 4.58954
2 5.60998 20.9191 4.89096
1 5.55916 19.0001 5.30762
1 5.45446 20.9277 6.87397
2 5.61911 19.0041 7.27854
1 3.66067 19.1286 7.62531
1 5.56556 18.9957 9.28203
2 3.65762 18.9283 9.61041
1 3.51083 20.9271 9.88399
1 3.76201 19.1201 11.5153
2 3.68021 20.9533 11.9445
1 5.57924 20.77 12.3037
1 3.64138 20.9218 13.8738
2 5.53725 20.9539 14.2727
1 5.56206 18.9937 14.5917
1 5.70331 20.925 16.2383
2 5.57409 18.9916 16.5874
1 3.67787 18.9201 16.9969
1 5.56451 19.0014 18.5509
2 3.63215 19.0349 18.9686
1 3.64671 20.9235 19.3402
1 3.64896 19.0057 20.8998
2 3.64977 20.9249 21.295
1 5.56451 20.9223 21.6771
1 3.65179 20.9241 23.2483
2 5.57119 20.9255 23.6334
1 5.56944 19.0022 24.0174
1 5.57026 20.9225 25.5866
2 5.57324 19.0063 25.9695
1 3.65084 19.0114 26.3246
1 5.59915 18.9479 27.9553
2 3.69616 22.88 0.23366
1 3.65446 24.7671 0.614267
1 3.64513 22.8715 2.16962
2 3.64968 24.7645 2.57051
1 5.57078 24.7568 2.95624
1 3.65849 24.7604 4.5241
2 5.57106 24.7586 4.91076
1 5.56144 22.8349 5.29991
1 5.57269 24.7657 6.86638
2 5.61867 22.8847 7.24777
1 3.64978 22.704 7.63304
1 5.58123 22.8353 9.19641
2 3.7287 22.9109 9.59386
1 3.64573 24.7676 9.98384
1 3.51462 22.8454 11.5531
2 3.69513 24.807 11.9344
1 5.57738 24.7617 12.3163
1 3.64864 24.7488 13.8796
2 5.57141 24.756 14.2708
1 5.57652 22.8421 14.6652
1 5.56664 24.7663 16.2255
2 5.5246 22.8886 16.615
1 3.64135 22.8408 16.9956
1 5.57459 22.833 18.5625
2 3.65034 22.8385 18.9512
1 3.65785 24.7579 19.3414
1 3.65626 22.8449 20.9064
2 3.66898 24.7589 21.2949
1 5.67333 24.7583 21.7766
1 3.61264 24.7587 23.2375
2 5.39732 24.7588 23.6672
1 5.6225 22.8722 24.0043
1 5.59257 24.7578 25.5674
2 5.56769 22.8379 25.9709
1 3.64925 22.8288 26.3675
1 5.57229 22.8376 27.9252
2 7.48922 -0.186902 0.228662
1 7.48828 1.73336 0.615442
1 7.48925 -0.186004 2.18444
2 7.48991 1.73258 2.57093
1 9.40789 1.73275 2.96046
1 7.49059 1.73264 4.52602
2 9.40795 1.73266 4.93115
1 9.40809 -0.184588 5.29419
1 9.40816 1.7327 6.94462
2 9.40803 -0.21811 7.22745
1 7.49248 -0.180297 7.64322
1 9.40788 -0.0569879 9.21773
2 7.44399 -0.231357 9.59122
1 7.61809 1.73322 9.96435
1 7.49377 -0.182147 11.5398
2 7.45701 1.73239 11.9539
1 9.40871 1.73288 12.237
1 7.49759 1.73056 13.8877
2 9.41049 1.73314 14.2511
1 9.40826 -0.184252 14.6563
1 9.40748 1.73263 16.2216
2 9.40812 -0.182157 16.6113
1 7.48796 -0.18229 16.9957
1 9.40093 -0.189134 18.5669
2 7.48693 -0.180907 18.9518
1 7.48829 1.7298 19.3386
1 7.49068 -0.194204 20.9228
2 7.48826 1.73319 21.2901
1 9.40564 1.73963 21.6862
1 7.48092 1.72674 23.2455
2 9.36183 1.67825 23.6355
1 9.35383 -0.225381 24.0051
1 9.41478 1.73268 25.579
2 9.41189 -0.184009 25.9739
1 7.49011 -0.188021 26.3519
1 9.40792 -0.185633 27.9252
2 7.48692 3.65368 0.234669
1 7.49035 5.57204 0.615399
1 7.48863 3.65174 2.18507
2 7.48881 5.57083 2.57067
1 9.40783 5.57053 2.95683
1 7.48908 5.57037 4.52523
2 9.40798 5.57233 4.908
1 9.40816 3.64995 5.29413
1 9.40827 5.57558 6.86165
2 9.40788 3.6835 7.22761
1 7.49227 3.64548 7.64338
1 9.40783 3.52224 9.21764
2 7.44358 3.70258 9.5913
1 7.4853 5.58134 9.98787
1 7.49438 3.64126 11.5393
2 7.48826 5.52917 11.9414
1 9.409 5.58111 12.3135
1 7.51084 5.57268 13.8838
2 9.41407 5.57041 14.2715
1 9.40938 3.65003 14.6566
1 9.4097 5.56975 16.225
2 9.40973 3.64926 16.6107
1 7.49378 3.65241 16.9984
1 9.40366 3.65443 18.5675
2 7.48972 3.64866 18.9515
1 7.49008 5.57195 19.3344
1 7.49018 3.64738 20.9039
2 7.49495 5.53913 21.265
1 9.42632 5.57596 21.7066
1 7.47985 5.70579 23.2546
2 9.34812 5.50955 23.6328
1 9.54885 3.64223 24.0021
1 9.41681 5.57889 25.5608
2 9.37974 3.65446 25.9953
1 7.4921 3.6495 26.3605
1 9.41063 3.65244 27.9281
2 7.48746 7.48746 0.214247
1 7.48857 9.40433 0.6142
1 7.48874 7.48884 2.18188
2 7.48988 9.40536 2.57087
1 9.40796 9.40723 2.95759
1 7.4891 9.40776 4.52493
2 9.4082 9.40726 4.91207
1 9.40809 7.49005 5.29632
1 9.40665 9.4074 6.86831
2 9.40775 7.48724 7.25242
1 7.48897 7.49628 7.63875
1 9.40583 7.49842 9.21092
2 7.48863 7.49181 9.59803
1 7.48976 9.40827 9.85413
1 7.4885 7.40701 11.5369
1 9.44478 9.41128 12.335
1 7.49832 9.40722 14.0101
2 9.42845 9.40782 14.263
1 9.40708 7.49668 14.6531
1 9.40648 9.41045 16.2219
2 9.41125 7.48851 16.6106
1 7.49462 7.48959 17.0008
1 9.40894 7.48911 18.568
2 7.49131 7.48745 18.9737
1 7.49516 9.40123 19.3341
1 7.49112 7.4882 20.9865
2 7.48899 9.43897 21.2681
1 9.41889 9.40109 21.6949
1 7.48872 9.27491 23.26
2 9.41743 9.51013 23.6259
1 9.37606 7.48987 23.9731
1 9.40743 9.39698 25.5665
2 9.40446 7.48885 26.0352
1 7.49256 7.49109 26.2772
1 9.41207 7.48895 27.9372
2 7.49124 11.3181 0.229901
1 7.49611 13.2119 0.632962
1 7.48607 11.3174 2.18664
2 7.44517 13.2023 2.57002
1 9.39322 13.3775 2.94384
1 7.49021 13.2648 4.51806
2 9.41329 13.2116 4.93441
1 9.40816 11.3215 5.30034
1 9.40252 13.2506 6.86891
2 9.4072 11.328 7.25505
1 7.48711 11.3271 7.63696
1 9.40689 11.3204 9.21389
2 7.48871 11.326 9.59738
1 7.48385 13.2442 9.98248
1 7.48929 11.4078 11.5346
2 7.48459 13.2842 11.9419
1 9.37147 13.2365 12.3235
1 7.48721 13.247 13.895
2 9.42764 13.2444 14.2696
1 9.40948 11.3236 14.6522
1 9.4174 13.2442 16.224
2 9.40777 11.3264 16.6089
1 7.48571 11.3319 17.0015
1 9.44646 11.3745 18.5778
2 7.54233 11.2847 18.9465
1 7.3572 13.2557 19.322
1 7.48324 11.3346 20.8964
2 7.52522 13.2449 21.3167
1 9.42485 13.2444 21.6649
1 7.48991 13.2469 23.2468
2 9.40617 13.2499 23.6342
1 9.41335 11.3446 24.0158
1 9.40539 13.2479 25.5925
2 9.40883 11.3243 25.9718
1 7.49049 11.3269 26.3576
1 9.40952 11.3258 27.9238
2 7.46034 14.9913 0.173697
1 7.62337 15.2735 2.10415
2 7.44488 17.1363 2.72156
1 9.39476 16.9551 2.92297
1 7.48618 17.0683 4.56151
2 9.40254 17.116 4.93427
1 9.40519 15.1644 5.21392
1 9.40649 17.084 6.87023
2 9.44848 15.1665 7.21875
1 7.57278 15.165 7.64447
1 9.40002 15.1656 9.19635
2 7.48559 15.1597 9.58318
1 7.47481 17.0831 9.97666
1 7.48985 15.1638 11.5416
2 7.55934 17.0381 11.9213
1 9.4183 17.0807 12.313
1 7.49215 17.0863 13.8847
2 9.39514 17.0859 14.274
1 9.40982 15.1597 14.6553
1 9.41256 17.077 16.2285
2 9.41758 15.1638 16.6097
1 7.54502 15.1583 17.02
1 9.44937 15.1163 18.5819
2 7.53913 15.2102 18.9482
1 7.49586 17.0821 19.3448
1 7.47255 15.1535 20.893
2 7.44551 17.0347 21.2954
1 9.41084 17.2086 21.6629
1 7.493 17.0889 23.2399
2 9.40745 17.0524 23.6585
1 9.40845 15.1592 24.0217
1 9.40449 17.0835 25.5945
2 9.41006 15.1607 25.9907
1 7.49222 15.1879 26.3716
1 9.37253 15.2173 28.021
2 7.49184 19.1759 0.193291
1 7.49133 20.9611 0.623429
1 7.483 18.9106 2.08403
2 7.48677 20.9046 2.56455
1 9.40435 20.9176 2.95511
1 7.49343 20.9186 4.51426
2 9.40831 20.923 4.91091
1 9.41395 19.008 5.30348
1 9.41454 20.9164 6.86795
2 9.43253 19.0025 7.25449
1 7.49308 18.9924 7.62892
1 9.35703 19.0046 9.19124
2 7.5059 19.0051 9.56966
1 7.48562 20.9187 9.98723
1 7.34017 19.0016 11.5605
2 7.5317 20.9644 11.9527
1 9.4146 20.9202 12.3109
1 7.48673 20.9159 13.961
2 9.43776 20.9197 14.2486
1 9.40336 19.0063 14.6674
1 9.27979 20.9199 16.238
2 9.45298 18.957 16.6318
1 7.4924 19.1305 16.9826
1 9.4046 19.0074 18.6384
2 7.45387 18.9691 18.9522
1 7.4936 20.9196 19.2664
1 7.61786 19.0035 20.9199
2 7.44343 20.9665 21.2706
1 9.40659 20.7916 21.6631
1 7.49197 20.9191 23.2356
2 9.40509 20.9609 23.6552
1 9.40835 19.003 23.939
1 9.4083 20.9211 25.588
2 9.40945 19.0037 25.95
1 7.48854 18.9792 26.3768
1 9.37523 18.952 27.9348
2 7.49009 22.8494 0.228952
1 7.48885 24.7593 0.617829
1 7.48609 22.8386 2.18957
2 7.48947 24.759 2.57143
1 9.40793 24.7584 2.95623
1 7.4886 24.7577 4.52601
2 9.40799 24.7568 4.90792
1 9.40804 22.8387 5.29681
1 9.40788 24.7532 6.86194
2 9.41047 22.8382 7.25139
1 7.49812 22.8426 7.63672
1 9.41005 22.8339 9.20768
2 7.4912 22.8356 9.59146
1 7.48452 24.7515 9.97673
1 7.49204 22.8443 11.5465
2 7.49293 24.7602 11.9319
1 9.40797 24.7574 12.3173
1 7.48974 24.7596 13.8852
2 9.40438 24.7586 14.2706
1 9.39942 22.8359 14.6627
1 9.41295 24.7669 16.2249
2 9.45223 22.8855 16.6114
1 7.48949 22.7099 16.9844
1 9.40449 22.8352 18.5616
2 7.49115 22.8673 18.9751
1 7.48973 24.7649 19.2994
1 7.48632 22.8554 20.9233
2 7.48928 24.7629 21.1453
1 9.30542 24.7607 21.7751
2 9.5786 24.7572 23.6671
1 9.35559 22.8774 24.0079
1 9.38489 24.7593 25.5681
2 9.40929 22.8407 25.9751
1 7.48933 22.8424 26.3516
1 9.40774 22.8399 27.9261
2 11.3249 -0.185948 0.230767
1 11.3271 1.73435 0.616052
1 11.3273 -0.185868 2.18448
2 11.3244 1.73387 2.57111
1 13.2397 1.72862 2.95716
1 11.3252 1.73309 4.5267
2 13.2459 1.73459 4.91168
1 13.2473 -0.185129 5.29616
1 13.2461 1.73276 6.86405
2 13.2456 -0.182643 7.24901
1 11.3232 -0.179891 7.64239
1 13.2457 -0.192226 9.20387
2 11.3698 -0.231342 9.59131
1 11.1968 1.73273 9.965
1 11.3221 -0.183961 11.5398
2 11.358 1.73287 11.9546
1 13.2456 1.73275 12.3267
1 11.3261 1.73256 13.8898
2 13.2463 1.73508 14.2972
1 13.2428 -0.177544 14.6539
1 13.2481 1.73151 16.3097
2 13.2458 -0.21576 16.5839
1 11.3347 -0.179658 17.0062
1 13.2763 -0.08799 18.5946
2 11.2829 -0.233931 18.9489
1 11.4594 1.7296 19.3213
1 11.3294 -0.193087 20.8988
2 11.292 1.69803 21.2911
1 13.2408 1.73102 21.6038
1 11.3252 1.86739 23.26
2 13.2871 1.684 23.6138
1 13.2471 -0.184038 24.0167
1 13.2432 1.73562 25.5826
2 13.2452 -0.187535 25.9726
1 11.3264 -0.189863 26.3544
1 13.2387 -0.181853 27.9262
2 11.326 3.65195 0.21126
1 11.3315 5.57527 0.61102
1 11.3259 3.65211 2.18086
2 11.3243 5.56998 2.56991
1 13.2386 5.57341 2.95654
1 11.3265 5.57012 4.52559
2 13.2462 5.56907 4.91192
1 13.2454 3.65155 5.29763
1 13.2462 5.56886 6.86667
2 13.2461 3.64807 7.24921
1 11.3233 3.64549 7.64248
1 13.2459 3.65756 9.2035
2 11.37 3.69691 9.59144
1 11.3282 5.58038 9.98089
1 11.3209 3.64951 11.5393
2 11.3256 5.57608 11.9321
1 13.2456 5.57245 12.3159
1 11.3272 5.56855 13.8857
2 13.2461 5.57302 14.2685
1 13.2453 3.65017 14.6535
1 13.2459 5.57802 16.2203
2 13.243 3.68374 16.5853
1 11.3292 3.64558 17.0056
1 13.2396 3.51973 18.576
2 11.2811 3.69278 18.9699
1 11.3242 5.57723 19.3269
1 11.3323 3.64886 20.985
2 11.3263 5.573 21.224
1 13.2245 5.60335 21.7188
1 11.3714 5.61582 23.3184
2 13.3495 5.38397 23.5991
1 13.1088 3.60955 24.0148
1 13.2847 5.7339 25.4678
2 13.2749 3.67349 25.9875
1 11.3322 3.66145 26.2752
1 13.2386 3.65603 27.9195
2 11.3436 7.48866 0.209445
1 11.3309 9.40139 0.61095
1 11.3313 7.48896 2.17761
2 11.324 9.40559 2.56997
1 13.2394 9.41476 2.95524
1 11.3276 9.40756 4.52524
2 13.2501 9.40787 4.91093
1 13.2466 7.48842 5.29701
1 13.2454 9.40862 6.86477
2 13.2435 7.48997 7.25268
1 11.3268 7.48875 7.63786
1 13.2461 7.49267 9.21058
2 11.3244 7.48908 9.58975
1 11.3461 9.41153 9.99551
1 11.37 7.5241 11.5592
2 11.2063 9.41588 11.8842
1 11.4249 9.40726 13.7796
2 13.2411 9.40937 14.42
1 13.2458 7.50038 14.641
1 13.2444 9.41185 16.267
2 13.2454 7.4855 16.6106
1 11.3279 7.49063 16.9993
1 13.2501 7.49192 18.5682
2 11.3287 7.48499 18.9703
1 11.3249 9.36861 19.3433
1 11.3334 7.49477 20.9961
2 11.3312 9.45891 21.2638
1 13.2705 9.42977 21.6891
1 11.387 9.21643 23.2764
2 13.2768 9.62816 23.5923
1 13.2938 9.24163 25.4705
2 13.1122 7.48908 26.1199
1 11.3 7.48895 26.2597
1 13.3456 7.48736 27.8985
2 11.3254 11.3265 0.229987
1 11.319 13.2518 0.620629
1 11.3374 11.3209 2.18449
2 11.3282 13.1981 2.56013
1 13.1735 13.2465 2.9658
1 11.3295 13.2558 4.51052
2 13.247 13.2515 4.90324
1 13.2503 11.3309 5.2929
1 13.2504 13.2425 6.85689
2 13.2433 11.326 7.25416
1 11.3264 11.3276 7.63805
1 13.2455 11.3257 9.21489
2 11.3235 11.3261 9.58811
1 11.3447 13.2373 10.0002
1 11.4248 11.3265 11.5733
2 11.1577 13.2415 11.8966
1 11.432 13.2505 13.7875
2 13.2464 13.2525 14.4245
1 13.245 11.3282 14.6232
1 13.2402 13.2458 16.268
2 13.2436 11.325 16.6088
1 11.331 11.3512 17.0141
1 13.2242 11.3763 18.5956
2 11.3305 11.1569 18.9127
1 11.332 11.4288 20.8069
2 11.3354 13.2447 21.4398
1 13.2684 13.1942 21.6493
1 11.3298 13.2485 23.2828
2 13.2481 13.261 23.6344
1 13.2471 11.3817 24.0256
1 13.2483 13.2464 25.5934
2 13.2454 11.3005 25.9667
1 11.3326 11.3181 26.355
1 13.2476 11.3297 27.9236
2 11.353 15.1667 0.205793
1 11.3224 17.0801 0.628928
1 11.2082 15.1649 2.20196
2 11.3974 17.1287 2.57592
1 13.3546 17.0771 3.06101
1 11.2848 17.0774 4.51092
2 13.0686 17.077 4.96973
1 13.305 15.1998 5.28272
1 13.2636 17.0964 6.94396
2 13.2425 15.1313 7.22958
1 11.3373 15.1735 7.64153
1 13.2457 15.2402 9.21724
2 11.2756 15.1266 9.58919
1 11.5062 17.1374 9.95548
1 11.387 15.1443 11.5456
2 11.3124 17.0769 11.9578
1 13.3402 17.0819 12.3382
1 11.2881 17.0859 13.8821
2 13.0758 17.0813 14.2854
1 13.2964 15.1887 14.6277
1 13.2674 17.0795 16.2023
2 13.2454 15.1697 16.6108
1 11.33 15.1427 17.0129
1 13.2166 15.1121 18.58
2 11.3286 15.3375 18.9157
1 11.3188 17.1252 19.3506
1 11.3337 15.0569 20.8076
2 11.3712 17.0149 21.2869
1 13.2477 17.0761 21.6776
1 11.323 17.0846 23.2348
2 13.2452 17.0846 23.6324
1 13.246 15.1652 24.0133
1 13.2447 17.0827 25.5853
2 13.2474 15.1674 25.9704
1 11.3224 15.1631 26.3579
1 13.2538 15.159 27.928
2 11.3179 19.0012 0.228856
1 11.3246 20.9192 0.615345
1 11.3345 19.0054 2.18482
2 11.3261 20.9219 2.57181
1 13.2461 20.9246 2.95572
1 11.3293 20.917 4.52836
2 13.2466 20.9211 4.90973
1 13.297 18.9645 5.2338
1 13.2436 20.916 6.87405
2 13.2423 19.0311 7.06563
1 11.4495 18.9878 7.75363
2 11.106 19.0396 9.63418
1 11.3782 20.8936 9.96622
1 11.3698 18.9942 11.5202
2 11.33 20.9232 11.9297
1 13.2502 20.9237 12.3162
1 11.3275 20.9152 13.8827
2 13.201 20.8663 14.2697
1 13.2941 18.9616 14.6433
1 13.2525 20.9224 16.2187
2 13.2491 19.0042 16.6095
1 11.3346 18.9981 16.9922
1 13.2519 19.0029 18.5617
2 11.3586 19.0129 18.9295
1 11.3248 20.9207 19.3432
1 11.1985 19.0046 20.9218
2 11.3733 20.9687 21.2911
1 13.2599 20.9353 21.6831
1 11.3151 20.9151 23.2398
2 13.1987 20.8734 23.632
1 13.2443 18.9954 24.019
1 13.2531 20.9259 25.5793
2 13.2375 19.0024 25.9739
1 11.3227 19.0054 26.3593
1 13.2439 19.0011 27.9318
2 11.3235 22.8402 0.233866
1 11.3258 24.7588 0.616275
1 11.3267 22.8396 2.18548
2 11.326 24.7589 2.57071
1 13.2401 24.759 2.96034
1 11.326 24.7589 4.52609
2 13.2434 24.7585 4.91427
1 13.2463 22.8377 5.29827
1 13.2454 24.7606 6.86681
2 13.2464 22.8406 7.25078
1 11.327 22.8411 7.63704
1 13.2471 22.837 9.20485
2 11.3283 22.8329 9.59143
1 11.3307 24.7507 9.97814
1 11.3234 22.8369 11.5434
2 11.3254 24.7572 11.9315
1 13.2489 24.7549 12.3216
1 11.3194 24.7608 13.8859
2 13.2009 24.8018 14.2704
1 13.3765 22.8379 14.6442
1 13.2553 24.7505 16.2219
2 13.2138 22.8361 16.6341
1 11.3307 22.8403 17.0044
1 13.2826 22.8886 18.5825
2 11.3304 22.8366 18.9536
1 11.3233 24.7507 19.3411
1 11.3237 22.8503 20.9068
2 11.3106 24.7583 21.2953
1 13.2588 24.7525 21.6644
1 11.3602 24.7607 23.2335
2 13.2063 24.8029 23.6308
1 13.3732 22.8384 24.003
1 13.2496 24.755 25.5801
2 13.2131 22.8417 25.9943
1 11.3199 22.8418 26.3574
1 13.2407 22.8368 27.9285
2 15.1188 -0.140938 0.232353
1 15.1678 1.7426 0.623324
1 15.1676 -0.196448 2.17849
2 15.1216 1.68653 2.57243
1 17.0831 1.86353 2.94777
1 15.1691 1.73856 4.52024
2 17.0835 1.70158 4.95675
1 17.0834 -0.191776 5.29597
1 17.0833 1.73363 6.94613
2 17.0834 -0.220921 7.2301
1 15.1683 -0.179286 7.64167
1 17.0835 -0.057665 9.21843
2 15.1213 -0.229279 9.58839
1 15.2947 1.73375 9.96429
1 15.1707 -0.177707 11.5361
2 15.1333 1.7338 11.9549
1 17.0835 1.73294 12.2378
1 15.1657 1.73365 13.8899
2 17.0827 1.73571 14.2513
1 17.0863 -0.177317 14.6576
1 17.0819 1.7335 16.2256
2 17.0837 -0.181705 16.61
1 15.1606 -0.202934 17.0225
1 17.0644 -0.241339 18.5767
2 15.2215 -0.0564008 18.9177
1 15.0384 1.76628 19.3343
1 15.1524 -0.278253 20.8008
2 15.1531 1.66157 21.3101
1 17.0867 1.85582 21.67
1 15.1671 1.7347 23.2369
2 17.0425 1.74802 23.6588
1 17.2323 -0.186124 24.0035
1 17.0881 1.73968 25.5839
2 17.0514 -0.153721 25.9743
1 15.162 -0.18969 26.3653
1 17.085 -0.315321 27.9397
2 15.1356 3.65285 0.210419
1 15.1693 5.57807 0.604154
1 15.2949 3.65493 2.19616
2 15.117 5.60951 2.56953
1 17.0857 5.44728 2.93958
1 15.1682 5.56262 4.51947
2 17.082 5.60423 4.93212
1 17.0831 3.65086 5.21549
1 17.0902 5.5766 6.86605
2 17.0837 3.68246 7.20529
1 15.1698 3.64545 7.64118
1 17.0836 3.5219 9.21523
2 15.1219 3.69712 9.59109
1 15.1633 5.58048 9.98118
1 15.1707 3.64956 11.5393
2 15.1656 5.57662 11.9319
1 17.0811 5.57348 12.317
1 15.1648 5.56905 13.8855
2 17.0834 5.57025 14.2719
1 17.0831 3.65057 14.6596
1 17.0822 5.56841 16.2267
2 17.0835 3.64997 16.6297
1 15.1628 3.64482 16.9997
1 17.0899 3.6537 18.6443
2 15.176 3.70605 18.9253
1 15.1725 5.57492 19.3424
1 15.2899 3.65036 20.9202
2 15.1148 5.60211 21.2913
1 17.0806 5.43545 21.6663
1 15.1572 5.62674 23.2553
2 17.0857 5.60221 23.6536
1 17.0803 3.66257 23.9416
1 17.0326 5.60096 25.6022
2 17.0848 3.65906 25.9723
1 15.1678 3.66082 26.3546
1 17.0845 3.65126 28.003
2 15.1734 7.49331 0.385213
1 15.1669 9.4025 0.606662
1 15.1709 7.48973 2.22738
2 15.1249 9.37515 2.56965
1 16.9981 9.41085 2.96379
1 15.1667 9.41176 4.51738
2 17.072 9.40937 4.90367
1 17.0925 7.49806 5.29575
1 17.0989 9.40709 6.86524
2 17.04 7.49205 7.24251
1 15.1557 7.48874 7.63787
1 17.086 7.49251 9.19838
2 15.1721 7.4896 9.5902
1 15.1432 9.41141 9.99908
1 15.1139 7.52405 11.5585
2 15.3357 9.41588 11.8951
1 17.1198 9.41144 12.3251
1 15.0604 9.40703 13.7858
2 17.0649 9.40903 14.2686
1 17.0791 7.49338 14.6563
1 17.0779 9.40879 16.2221
2 17.0841 7.48813 16.6112
1 15.1642 7.49439 17.0012
1 17.0787 7.49386 18.5664
2 15.1649 7.50922 18.9564
1 15.1614 9.51448 19.4361
1 15.156 7.45773 20.9028
2 15.1683 9.23994 21.3259
1 17.0471 9.46383 21.668
1 15.1362 9.37251 23.2449
2 17.0834 9.40726 23.6315
1 17.0516 7.49571 24.0407
1 17.0351 9.37568 25.6007
2 17.2594 7.48768 25.9409
1 16.9848 7.49599 27.8309
2 15.1642 11.329 0.238841
1 15.1645 13.2467 0.495304
1 15.167 11.2412 2.17162
1 17.1684 13.243 2.96754
1 15.1645 13.2486 4.64888
2 17.0816 13.2525 4.90412
1 17.0834 11.3287 5.28994
1 17.0768 13.2495 6.86125
2 17.0836 11.327 7.24885
1 15.1643 11.329 7.63607
1 17.0811 11.3279 9.20948
2 15.1676 11.3255 9.5878
1 15.1474 13.2396 10.0016
1 15.059 11.3267 11.5724
2 15.3332 13.2399 11.8959
1 17.1183 13.2428 12.3244
1 15.061 13.2515 13.7853
2 17.0649 13.2506 14.2687
1 17.0761 11.3279 14.6546
1 17.0803 13.2479 16.2192
2 17.0886 11.3271 16.6125
1 15.1612 11.325 16.9552
1 17.0718 11.3271 18.5813
2 15.1568 11.3283 18.7993
1 15.1607 13.1425 19.4374
2 15.1644 13.4204 21.3267
1 17.0502 13.1945 21.6653
1 15.1632 13.2213 23.2233
2 17.0852 13.2481 23.6341
1 17.0785 11.3222 24.0144
1 17.0817 13.2459 25.5872
2 17.0812 11.3212 25.9713
1 15.1589 11.3241 26.3589
1 17.0836 11.3278 27.9327
2 15.1658 15.1604 0.23949
1 15.1687 17.084 0.585241
1 15.1646 15.2555 2.1876
2 15.165 17.1238 2.43478
1 16.9789 17.0757 3.05436
2 17.2577 17.0837 4.9459
1 17.0247 15.1956 5.28153
1 17.0582 17.0887 6.84705
2 17.0879 15.1654 7.25115
1 15.1615 15.1722 7.63656
1 17.0856 15.1654 9.20972
2 15.2083 15.124 9.58663
1 14.9913 17.1373 9.92182