1665
Atoms. Timestep: 1412
2 26.9932 27.0085 -0.135849
1 27.0052 1.42757 0.239082
1 -0.519504 -0.523035 1.84836
2 -0.50964 1.44461 2.21543
1 1.45872 1.4717 2.34398
1 26.9849 1.41636 4.1003
1 1.39918 26.8118 4.83723
1 1.42556 1.65575 6.90304
1 26.7625 26.9016 7.54328
1 1.43378 26.9853 9.36238
2 26.9976 26.9833 9.46929
1 26.9506 1.43709 9.52415
1 26.9763 26.828 11.4019
1 1.60882 1.41363 11.999
1 26.8209 1.37719 14.1084
1 1.44263 1.62062 16.4498
1 26.8737 -0.490604 17.136
1 1.43918 26.9965 18.9867
2 26.9996 -0.514847 19.0833
1 26.9618 1.49682 19.4579
1 26.93 -0.308712 21.0186
2 -0.435603 1.54507 21.4319
1 1.48817 1.4692 21.5302
1 26.9644 1.46668 23.3253
1 1.42638 26.8352 24.3702
1 1.42068 1.45253 26.191
2 1.3554 27.0006 26.3032
1 26.9776 -0.505789 26.689
1 1.3967 26.9943 28.3139
2 -0.510122 3.32984 28.6741
1 -0.512916 5.20571 0.356586
1 -0.516224 3.37895 1.8786
2 27.0054 5.39998 2.28158
1 1.4299 5.4268 2.66595
1 27.0081 5.39494 4.25346
2 1.42722 5.49292 4.6564
1 1.41075 3.63309 5.12248
1 1.43934 5.45914 6.68356
2 1.43989 3.53362 7.07612
1 26.9586 3.46874 7.4467
1 1.25538 3.45157 9.00621
2 26.8913 3.42672 9.43643
1 26.9753 5.39086 9.82846
1 26.9781 3.55248 11.3747
2 26.9875 5.38248 11.8846
1 1.39745 5.40413 12.252
1 26.986 5.39983 13.8598
2 1.35702 5.48895 14.2673
1 1.40261 3.62892 14.7265
1 1.43053 5.45026 16.2963
2 1.43724 3.50161 16.669
1 26.9572 3.4183 17.056
1 1.26001 3.44072 18.6006
2 26.9126 3.43284 19.0673
1 -0.521153 5.39047 19.4887
1 26.9802 3.42722 21.0609
2 -0.434502 5.38555 21.4664
1 1.47453 5.38536 21.881
1 -0.474527 5.34609 23.4802
2 1.46358 5.38288 23.8625
1 1.4609 3.55745 24.3798
1 1.4564 5.38388 25.9346
2 1.45016 3.42172 26.3159
1 27.012 3.38827 26.6826
1 1.44555 3.42505 28.2811
1 27.0082 9.50165 0.346589
1 26.9441 7.42762 2.17044
2 -0.200476 9.33112 2.18908
1 1.5963 9.3192 2.65844
1 -0.363437 9.37177 4.08366
2 1.53068 9.33027 4.67015
1 1.43712 7.39302 5.07772
1 1.44211 9.32587 6.65254
2 1.42999 7.37549 7.07675
1 26.9955 7.34851 7.4719
1 1.43409 7.37494 9.05429
2 26.9891 7.33827 9.43563
1 26.9896 9.3147 9.55108
1 26.9995 7.21418 11.3754
1 1.62429 9.32104 12.3592
1 27.0058 9.31566 14.1752
2 1.45786 9.32118 14.2948
1 1.42904 7.38378 14.6907
1 1.48209 9.31757 16.2785
2 1.44834 7.37116 16.6853
1 27.0077 7.34205 17.0977
1 1.44706 7.36743 18.6599
2 -0.517818 7.3514 19.0754
1 -0.515285 9.31222 19.4512
1 -0.503795 7.3471 21.0571
2 -0.517938 9.31348 21.4154
1 1.46777 9.31518 21.5519
1 27.0062 9.31202 23.2943
1 1.47288 7.21289 24.3551
1 1.44897 9.30121 26.2215
2 1.45913 7.34195 26.2981
1 -0.515647 7.33965 26.3616
1 1.63479 7.32744 28.2318
2 -0.515647 11.3731 28.6716
1 26.9898 13.2614 0.31437
1 26.9491 11.2946 1.90579
2 -0.465105 13.2393 2.2666
1 1.48039 13.2336 2.63407
1 -0.411604 13.2644 4.20975
2 1.48788 13.2455 4.65598
1 1.46467 11.2759 5.08552
1 1.44969 13.2468 6.64239
2 1.44507 11.2859 7.06561
1 27.0029 11.3097 7.4439
1 1.43409 11.2766 9.04004
2 27.0064 11.2958 9.43112
1 27.0101 13.2935 9.84363
1 26.9976 11.4601 11.3688
2 26.9948 13.3352 11.8668
1 1.39865 13.2316 12.2619
1 26.9775 13.2521 13.8567
2 1.35692 13.2329 14.2695
1 1.4548 11.2709 14.6775
1 1.42653 13.2102 16.2547
2 1.53523 11.2685 16.6671
1 -0.338268 11.2757 17.1658
1 1.49563 11.2676 18.6865
2 -0.501502 11.2763 19.1051
1 26.9778 13.2388 19.4806
1 -0.498173 11.2799 21.0832
2 26.9993 13.2408 21.4505
1 1.44991 13.2367 21.574
1 26.8317 13.2646 23.3803
1 1.45418 11.2833 24.4642
1 1.44417 13.2466 26.2407
2 1.45187 11.2784 26.3467
1 -0.513214 11.2982 26.6916
1 1.44638 11.2874 28.3234
2 -0.521564 15.2168 -0.128465
1 -0.516366 17.172 0.292205
1 26.984 15.1923 1.86501
2 -0.512362 17.173 2.2662
1 1.44451 17.1727 2.68282
1 -0.512698 17.1568 4.2508
2 1.45213 17.1739 4.66217
1 1.45985 15.218 5.08622
1 1.45179 17.1775 6.64394
2 1.45071 15.2109 7.06419
1 27.0129 15.2146 7.46879
1 1.44627 15.2159 9.03963
2 27.0109 15.2203 9.44852
1 -0.51866 17.1833 9.8619
1 26.9989 15.2352 11.4362
2 26.9937 17.1882 11.8316
1 1.28044 17.159 12.3263
1 26.9816 17.1869 13.9094
2 1.35905 17.1686 14.2895
1 1.38369 15.159 14.6479
1 1.40227 17.0011 16.2151
2 1.33373 15.1213 16.6546
1 26.9331 15.2051 17.0649
1 1.22627 15.1983 18.6079
2 26.8996 15.2088 19.094
1 26.9595 17.17 19.4783
1 26.9962 15.2028 21.0686
2 -0.45957 17.1675 21.4617
1 1.46611 17.1649 21.5629
1 26.8813 17.1506 23.428
1 1.44757 15.2027 24.4647
1 1.44201 17.1943 26.2161
2 1.43788 15.2149 26.3482
1 -0.518493 15.2132 26.7104
1 1.44004 15.2158 28.3229
2 27.0094 19.1402 28.6845
1 26.9979 21.1013 0.281429
1 27.0092 19.1436 1.84769
2 -0.518276 21.1075 2.26254
1 1.43645 21.0769 2.68566
1 26.99 21.1238 4.25358
2 1.44255 21.0845 4.65657
1 1.44505 19.1347 5.07373
1 1.42884 21.0754 6.65378
2 1.4496 19.1318 7.06478
1 -0.505063 19.1272 7.47981
1 1.44982 19.1494 9.05035
2 -0.504988 19.149 9.46102
1 27.0133 21.1124 9.87145
1 27.0074 19.1531 11.4369
2 27.0098 21.1073 11.8647
1 1.44163 21.1319 12.2661
1 26.9983 21.0936 13.8478
2 1.44414 21.0689 14.254
1 1.446 19.1393 14.3664
1 1.44362 21.2417 16.2163
1 26.7863 19.1482 17.1425
1 1.22851 19.1377 18.9228
2 26.8854 19.134 19.0991
1 27.0017 21.0747 19.4445
1 26.9919 19.1222 21.0866
2 -0.514164 21.0266 21.4576
1 1.48943 21.1155 21.8559
1 -0.340059 21.1126 23.3881
2 1.53431 21.1878 23.8769
1 1.47092 19.3205 24.3795
1 1.43817 21.1472 25.9043
2 1.44244 19.1569 26.3129
1 27.0089 19.1487 26.7017
1 1.43884 19.1592 28.287
2 26.9913 23.0704 -0.13654
1 -0.519634 25.0428 0.245676
1 27.0062 23.0626 1.83534
2 -0.509658 25.0369 2.18975
1 1.29601 25.0096 2.71173
1 26.9519 24.9985 4.22446
2 1.34454 24.9325 4.66682
1 1.43734 22.9967 5.05541
1 1.41571 24.8267 6.61565
2 1.43082 22.9716 7.08294
1 26.9959 23.0798 7.48656
1 1.43849 23.0528 9.05874
2 -0.500531 23.0736 9.48517
1 27.0053 24.9952 9.86032
1 -0.507243 23.0565 11.4697
2 27.0014 24.9609 11.8716
1 1.43988 25.0272 12.2701
1 -0.467872 25.0775 13.8619
2 1.44645 24.759 14.1553
1 1.44323 22.9705 14.625
1 1.44513 24.9301 16.0519
2 1.44138 23.0952 16.6825
1 27.0108 23.0753 17.0706
1 1.43795 23.0999 18.6542
2 27.0101 23.0669 19.0527
1 27.0073 25.0409 19.1664
1 -0.509724 22.8986 20.987
1 1.56312 25.0334 21.9108
1 26.9689 25.072 23.7764
2 1.3743 24.97 23.88
1 1.43116 23.0789 24.2936
1 1.417 25.0042 25.9162
2 1.35578 23.0774 26.2944
1 26.9747 23.0759 26.7013
1 1.39586 23.067 28.3084
2 3.40495 -0.512467 28.6771
1 3.43199 1.50102 0.222735
1 3.40343 -0.330057 1.78744
2 3.41971 1.54562 2.23808
1 5.40955 1.50155 2.64034
1 3.59486 1.49197 4.17768
2 5.46268 1.55386 4.67468
1 5.41139 -0.329494 5.15964
1 5.40295 1.5099 6.68126
2 5.47475 -0.50811 7.08936
1 3.60215 27.0082 7.5551
1 5.43543 27.0042 9.1001
2 3.42303 26.9195 9.48581
1 3.42582 1.26373 9.91087
1 3.43203 26.9587 11.4974
2 3.4914 1.44221 11.8498
1 5.41139 1.45475 11.9255
1 3.42643 1.32906 13.7429
1 5.41026 26.8399 14.7548
1 5.40379 1.43148 16.5925
2 5.47584 27.0038 16.6977
1 3.5913 26.9875 17.1543
1 5.43912 26.9736 18.7014
2 3.42625 26.9275 19.0903
1 3.45399 1.26159 19.5381
1 3.44724 26.9736 21.1197
2 3.44456 1.44509 21.4692
1 5.43564 1.47147 21.8398
1 3.5986 1.45764 23.4008
2 5.47767 1.56598 23.8541
1 5.43329 -0.310089 24.0378
1 5.40018 1.6709 25.8116
1 3.22589 -0.504131 26.7514
1 5.3795 -0.512801 28.584
2 3.41422 3.43166 28.6743
1 3.43227 5.38368 0.276069
1 3.39924 3.44671 1.84182
2 3.36499 5.39257 2.2675
1 5.27653 5.3833 2.71947
1 3.36936 5.40885 4.27287
2 5.31334 5.39231 4.66896
1 5.43668 3.47293 5.05702
1 5.39263 5.38924 6.63697
2 5.39824 3.43403 7.05228
1 3.42438 3.45087 7.15816
1 5.56752 3.43134 8.98623
1 3.37704 5.56298 9.93352
1 3.42013 3.42534 11.8013
2 3.40452 5.39207 11.8663
1 5.38225 5.38271 11.9577
1 3.23273 5.43765 13.795
1 5.41306 3.42804 14.8199
1 5.38233 5.40417 16.6242
2 5.37566 3.41832 16.698
1 3.40794 3.42778 16.7467
1 5.51777 3.40523 18.6309
1 3.4185 5.57475 19.5675
1 3.42772 3.42331 21.3817
2 3.43014 5.39553 21.5003
1 5.38483 5.37914 21.8904
1 3.42463 5.40836 23.4759
2 5.38721 5.40727 23.8706
1 5.40042 3.49111 24.2682
1 5.38728 5.41665 25.8661
2 5.38411 3.52542 26.3007
1 3.41922 3.44124 26.7031
1 5.39193 3.45282 28.2789
2 3.51153 7.34577 -0.135756
1 3.44221 9.31357 0.27564
1 3.43583 7.34386 1.83825
2 3.47258 9.3136 2.25688
1 5.37383 9.2939 2.67623
1 3.45938 9.31118 4.28186
2 5.38443 9.30779 4.6789
1 5.3933 7.32162 5.07475
1 5.36318 9.31105 6.64893
2 5.29144 7.34997 7.05963
1 3.38983 7.36877 7.47795
1 5.33424 7.36112 9.07698
2 3.39768 7.43884 9.46586
1 3.41691 9.33968 9.87405
1 3.42115 7.39199 11.4798
2 3.50214 9.31856 11.8656
1 5.4089 9.31215 12.2702
1 3.4599 9.31096 13.8794
2 5.39603 9.29069 14.2431
1 5.3893 7.47072 14.7673
1 5.39187 9.2955 16.3172
2 5.37986 7.35434 16.7126
1 3.41874 7.36293 17.1007
1 5.40886 7.4024 18.6924
2 3.42317 7.43395 19.0703
1 3.44433 9.3157 19.4746
1 3.44585 7.39739 21.1029
2 3.44384 9.32072 21.4602
1 5.49443 9.36211 21.8698
1 3.62115 9.31657 23.3826
2 5.47737 9.32527 23.8984
1 5.41796 7.35674 24.28
1 5.38951 9.30927 25.8685
2 5.39773 7.35654 26.2732
1 3.46962 7.35113 26.6752
1 5.41477 7.33654 28.2753
2 3.40498 11.2822 28.6779
1 3.41302 13.2529 0.272405
1 3.43068 11.2838 1.83451
2 3.41436 13.2477 2.24348
1 5.32571 13.232 2.65072
1 3.3937 13.2483 4.24442
2 5.28776 13.2465 4.67328
1 5.36477 11.2825 5.09183
1 5.36595 13.2489 6.6497
2 5.37709 11.2798 7.06837
1 3.41154 11.2761 7.48046
1 5.38409 11.2742 9.04576
2 3.41066 11.2762 9.45665
1 3.39383 13.1968 9.831
1 3.42294 11.2629 11.4549
2 3.39115 13.1589 11.8554
1 5.36708 13.2423 12.0103
1 3.24385 13.2747 13.7947
1 5.38423 11.1145 14.7162
1 5.38115 13.0816 16.4504
2 5.37581 11.2077 16.6593
1 3.43418 11.2677 17.0824
1 5.41553 11.2618 18.6275
2 3.43915 11.1976 19.0673
1 3.44887 13.0601 19.5442
1 3.43916 11.2412 21.0988
2 3.43685 13.2208 21.4737
1 5.48826 13.1951 21.8542
1 3.61736 13.2126 23.3963
2 5.46803 13.2283 23.8957
1 5.4191 11.2763 24.3038
1 5.37294 13.2449 25.8719
2 5.36547 11.2764 26.2773
1 3.41178 11.2768 26.6924
1 5.34663 11.2731 28.2633
2 3.40438 15.2168 -0.131543
1 3.41072 17.1792 0.274596
1 3.42292 15.2252 1.84927
2 3.42683 17.1762 2.25811
1 5.42618 17.2135 2.68571
1 3.42222 17.1737 4.23127
2 5.37389 17.1777 4.67602
1 5.37185 15.2195 5.07964
1 5.37607 17.1708 6.65852
2 5.37975 15.2111 7.06851
1 3.4141 15.1931 7.46483
1 5.37833 15.2091 9.04993
2 3.40901 15.1972 9.43898
1 3.41173 17.1787 9.56003
1 3.40249 15.0251 11.3695
1 5.54651 17.1523 12.0881
1 3.23249 17.102 14.1367
1 5.47176 17.0597 16.3361
1 3.21031 15.1705 16.8325
1 5.63708 15.1624 18.9817
1 3.44899 17.1673 19.6236
1 3.44188 15.1752 21.4193
2 3.42389 17.1708 21.5
1 5.39264 17.1889 21.818
1 3.57584 17.1523 23.4321
2 5.42275 17.1533 23.8715
1 5.40125 15.1949 24.2888
1 5.3706 17.1432 25.8661
2 5.2927 15.201 26.2752
1 3.39456 15.2101 26.7027
1 5.34779 15.2385 28.3093
2 3.41544 19.1288 28.6679
1 3.41071 21.0509 0.245976
1 3.42333 19.1125 1.84026
2 3.42214 21.0033 2.26438
1 5.43395 21.032 2.68443
1 3.42259 21.0685 4.23161
2 5.37544 21.0026 4.66932
1 5.38388 19.1105 5.08708
1 5.36474 21.0529 6.68153
2 5.37831 19.1275 7.08173
1 3.41061 19.1535 7.46849
1 5.37641 19.1425 9.06144
2 3.41069 19.1614 9.44202
1 3.4038 21.1601 9.85441
1 3.41717 19.3363 11.374
2 3.41087 21.2045 11.8787
1 5.38014 21.1552 12.2646
1 3.41483 21.1191 13.8532
2 5.38004 21.2193 14.2447
1 5.40718 19.3539 14.4173
1 5.36817 21.3183 16.201
1 3.38288 19.2065 16.8775
1 5.61877 19.158 18.924
1 3.40597 21.2953 19.5549
1 3.41737 19.159 21.4062
2 3.41674 21.1229 21.487
1 5.35979 21.0858 21.826
1 3.43005 21.1298 23.473
2 5.34765 20.9937 23.8348
1 5.36162 19.0761 24.2586
1 5.38243 20.8981 25.803
2 5.35455 19.04 26.2577
1 3.40228 19.1235 26.697
1 5.39966 19.1195 28.2173
2 3.41092 23.0614 28.6839
1 3.41447 25.0373 -0.0541723
1 3.40846 22.8694 1.79698
1 5.58156 25.0693 2.44235
1 3.23096 24.9893 4.5098
1 5.37455 22.8751 5.14277
1 5.38385 25.0383 6.96203
2 5.29425 23.0603 7.08036
1 3.39061 23.0579 7.48
1 5.33737 23.0648 9.10024
2 3.40101 23.0802 9.47032
1 3.40972 25.0208 9.87733
1 3.39837 23.1043 11.4733
2 3.41619 25.0461 11.8674
1 5.37086 25.0325 12.2918
1 3.35531 25.0806 13.855
2 5.36964 24.9931 14.2546
1 5.35249 23.1279 14.648
1 5.39705 25.0336 16.291
2 5.36826 23.1625 16.6936
1 3.39736 23.1201 17.0926
1 5.36734 23.0913 18.672
2 3.40385 23.1572 19.0733
1 3.40832 25.0437 19.4748
1 3.42638 23.1208 21.1011
2 3.48746 25.0453 21.4777
1 5.42778 25.0354 21.5734
1 3.28275 25.0291 23.434
1 5.38391 22.8688 24.0358
1 5.36498 25.0624 26.0862
1 3.23501 23.0538 26.7586
1 5.38827 23.0438 28.6177
2 7.35604 -0.494772 -0.125547
1 7.34279 1.47057 0.274745
1 7.37011 -0.500616 1.84948
2 7.28617 1.4673 2.24262
1 9.14564 1.45427 2.73823
1 7.33902 1.46696 4.2705
2 9.31214 1.46048 4.677
1 9.33315 -0.472592 5.0481
1 9.30814 1.44019 6.66938
2 9.32505 -0.440706 7.0784
1 7.3738 -0.507481 7.49033
1 9.32375 -0.511969 9.06072
2 7.36342 -0.519256 9.48101
1 7.37243 1.44654 9.84666
1 7.35384 26.9955 11.457
2 7.35401 1.44294 11.8108
1 9.30775 1.44447 11.9389
1 7.35477 1.43733 13.6954
1 9.30207 26.8191 14.7561
1 9.32507 1.43278 16.6011
2 9.31898 26.9834 16.6864
1 7.38691 27.0034 17.1005
1 9.36716 26.9347 18.6703
2 7.37565 26.9919 19.0865
1 7.38272 1.43078 19.4929
1 7.37156 27.0073 21.0657
2 7.37098 1.4387 21.4673
1 9.34468 1.4231 21.8777
1 7.38726 1.47598 23.4495
2 9.32641 1.46014 23.8691
1 9.33513 -0.468659 24.2663
1 9.33003 1.48031 25.8586
2 9.40695 -0.428899 26.2799
1 7.53524 -0.490958 26.7722
1 9.37013 -0.4983 28.3028
2 7.35969 3.41689 28.6695
1 7.34556 5.3802 0.272036
1 7.38122 3.47264 1.83322
2 7.04374 5.37847 2.16804
1 7.58386 5.37143 4.00263
2 9.28673 5.37804 4.87924
1 9.31098 3.40228 5.09629
1 9.318 5.19955 6.72901
2 9.32841 3.31115 7.10615
1 7.39265 3.40438 7.46175
1 9.34705 3.38228 9.0728
2 7.44127 3.41355 9.48222
1 7.37616 5.38367 9.86945
1 7.36577 3.42435 11.4579
2 7.35845 5.3879 11.8394
1 9.35849 5.39338 12.2417
1 7.52556 5.40477 13.7679
2 9.39078 5.46856 14.2707
1 9.30122 3.59672 14.7417
1 9.31796 5.42872 16.2956
2 9.31566 3.41942 16.6646
1 7.35042 3.41247 17.0268
1 9.17853 3.43936 18.5983
2 7.35106 3.39517 19.0887
1 7.34335 5.34273 19.4677
1 7.36306 3.40397 21.0646
2 7.34997 5.33309 21.47
1 9.31565 5.37371 21.8986
1 7.35406 5.38703 23.453
2 9.31518 5.38154 23.8754
1 9.31868 3.42291 24.287
1 9.30942 5.3822 25.8543
2 9.31424 3.42988 26.2731
1 7.35268 3.43987 26.6984
1 9.30853 3.41513 28.2544
2 7.36402 7.34547 28.6686
1 7.31506 9.29373 0.289272
1 7.36868 7.28944 1.83684
2 7.26432 9.29354 2.26047
1 9.12354 9.32669 2.7394
1 7.29856 9.30111 4.28483
2 9.30432 9.23696 4.67894
1 9.29802 7.30697 4.78117
1 9.28362 9.43733 6.64826
1 7.1614 7.3422 7.55192
1 9.31277 7.34832 9.37609
2 7.33626 7.34716 9.488
1 7.34549 9.31691 9.88713
1 7.33486 7.34841 11.4637
2 7.35915 9.31008 11.863
1 9.31763 9.28634 12.284
1 7.34978 9.28874 13.8426
2 9.3151 9.25728 14.2668
1 9.31932 7.36303 14.6888
1 9.30822 9.28247 16.2902
2 9.29826 7.3517 16.6831
1 7.34225 7.36861 17.1085
1 9.26179 7.39336 18.6755
2 7.3358 7.28046 19.0704
1 7.36061 9.57547 19.7384
1 7.35269 7.24404 21.0197
2 7.36799 9.01544 21.5613
1 9.2634 9.34544 21.8899
1 7.37347 9.28856 23.4674
2 9.32188 9.3063 23.8816
1 9.30342 7.34186 24.2788
1 9.30794 9.27979 25.8652
2 9.30932 7.33141 26.2677
1 7.35084 7.34807 26.6869
1 9.30072 7.33109 28.2509
2 7.24512 11.2596 -0.137504
1 7.30445 13.2064 0.228632
1 7.30927 11.2705 1.84381
2 7.32802 13.1971 2.23197
1 9.30141 13.2478 2.36217
1 7.15392 13.2452 4.17378
1 9.30295 11.1453 5.11052
1 9.30638 13.2742 6.96336
2 9.31078 11.3439 7.07921
1 7.34016 11.2904 7.48522
1 9.31253 11.2653 9.06571
2 7.3494 11.2797 9.47155
1 7.3476 13.242 9.86783
1 7.34948 11.2841 11.4654
2 7.28963 13.2596 11.856
1 9.19238 13.2272 12.2986
1 7.55427 13.4023 13.8621
2 9.39398 12.9316 14.1765
1 9.32965 11.1382 14.6506
1 9.38164 13.1207 16.0937
2 9.33668 11.2138 16.6338
1 7.3633 11.2941 16.9834
1 9.29181 11.2652 18.5976
2 7.35314 11.2772 18.8656
1 7.38206 12.9972 19.7119
2 7.35143 13.5572 21.5401
1 9.22456 13.1961 21.8268
1 7.35572 13.2831 23.4634
2 9.23126 13.2559 23.8797
1 9.27502 11.2319 24.2493
1 9.28154 13.069 25.7975
2 9.28912 11.1885 26.2596
1 7.29026 11.2554 26.6654
1 9.11677 11.2496 28.1956
2 7.31427 15.1436 -0.115857
1 7.33553 17.4428 0.531591
1 7.3102 15.1101 1.8313
2 7.34187 16.8862 2.35366
1 9.25124 17.2388 2.67995
1 7.33781 17.1732 4.24774
2 9.31181 17.262 4.65796
1 9.29877 15.3967 5.13456
1 9.30826 17.1949 6.68236
2 9.31286 15.2332 7.08687
1 7.34136 15.2159 7.48774
1 9.31118 15.2308 9.0681
2 7.34881 15.2108 9.46624
1 7.35107 17.1802 9.86936
1 7.34121 15.2064 11.4431
2 7.388 17.1584 11.8441
1 9.2423 17.1976 12.2967
1 7.59224 17.0122 13.8642
2 9.40884 17.4939 14.1794
1 9.39257 17.2872 16.0857
1 7.45577 15.1511 17.2268
1 9.42195 15.305 18.903
2 7.49826 15.316 19.091
1 7.40581 17.2331 19.4728
1 7.43055 15.3459 21.0558
2 7.31781 17.2419 21.4535
1 9.58627 17.2304 22.1471
1 7.27481 17.1911 23.4125
2 9.03453 17.196 23.9502
1 9.35587 15.2745 23.9703
1 9.33218 17.3248 25.7926
1 7.16324 15.244 26.7862
1 9.24897 15.2845 28.6168
2 7.3452 19.1412 28.4717
1 7.34065 20.8433 0.526913
2 7.33826 21.3998 2.35469
1 9.23909 21.0429 2.66356
1 7.34197 21.103 4.25477
2 9.3019 21.0921 4.65869
1 9.29785 19.1304 5.05562
1 9.29796 20.9378 6.59594
2 9.29917 19.0712 7.09032
1 7.33946 19.1301 7.49798
1 9.30296 19.146 9.06879
2 7.34379 19.145 9.47916
1 7.3439 21.1073 9.89143
1 7.35088 19.1438 11.4689
2 7.34466 21.1208 11.8682
1 9.3126 21.1389 12.2859
1 7.34576 21.1486 13.8435
2 9.31137 21.1686 14.2698
1 9.32541 19.2871 14.6581
1 9.33925 21.1464 16.3036
2 9.42072 19.1941 16.6404
1 7.58907 19.1368 17.153
1 9.44291 19.0642 18.6783
2 7.49467 19.1528 19.0945
1 7.41673 21.1124 19.5111
1 7.43911 19.1596 21.0939
2 7.29352 21.1004 21.4641
1 9.61236 21.0723 22.098
1 7.26746 21.0765 23.4099
2 9.04768 21.0796 23.9152
1 9.43699 19.1408 24.2226
1 9.31153 20.9619 25.7759
2 9.36493 19.1462 26.2914
1 7.36173 19.1195 26.5879
1 9.29436 19.1496 28.2388
2 7.34494 23.1452 -0.0846355
1 7.36791 25.0894 0.215042
1 7.35575 23.1807 1.85048
2 7.46236 25.0997 2.22085
1 9.38122 25.0617 2.62698
1 7.55754 25.0645 4.18715
2 9.40374 25.0507 4.65461
1 9.31699 23.0624 4.74283
1 9.334 25.2262 6.58441
1 7.16467 23.0598 7.56015
1 9.30243 23.0853 9.38127
2 7.32928 23.0748 9.49422
1 7.35039 25.0399 9.88958
1 7.32873 23.0807 11.467
2 7.34331 25.0378 11.8682
1 9.31459 25.0328 12.2848
1 7.34836 25.0225 13.8404
2 9.31326 24.9541 14.2622
1 9.29261 23.0641 14.6738
1 9.30982 24.9992 16.2898
2 9.28872 23.0807 16.6708
1 7.31125 23.0768 17.0771
1 9.15473 23.1522 18.6142
2 7.27606 23.0833 19.0909
1 7.3624 25.037 19.4933
1 7.37581 23.0475 21.0757
2 7.38893 25.0393 21.46
1 9.36662 25.0512 21.8674
1 7.54112 25.0208 23.3991
2 9.38596 25.0216 23.8919
1 9.39222 23.0031 23.9782
1 9.31761 25.2179 25.8033
1 7.35775 23.0188 26.8788
1 9.30473 23.0329 28.63
2 11.2985 26.9965 28.6639
1 11.2894 1.44592 -0.0482677
1 11.2971 26.8332 1.7704
1 13.391 1.48968 2.75012
1 11.2855 1.4612 4.57655
2 13.2524 1.46273 4.69432
1 13.2303 -0.508633 5.08704
1 13.2644 1.46118 6.66114
2 13.2488 -0.512071 7.06733
1 11.2894 -0.50514 7.49208
1 13.2483 27.0057 9.05294
2 11.2856 -0.517045 9.4707
1 11.3007 1.4432 9.86367
1 11.2771 27.0062 11.4526
2 11.222 1.44588 11.8491
1 13.1177 1.44543 12.3111
1 11.4073 1.44227 13.8269
2 13.3076 1.44426 14.2899
1 13.2558 27.004 14.6856
1 13.2335 1.43895 16.2817
2 13.2396 26.9981 16.6594
1 11.2793 27.0013 17.0713
1 13.1897 26.9523 18.6519
2 11.2776 -0.332205 18.9722
1 11.2824 1.38997 19.6267
1 11.2839 26.7031 20.8059
2 11.2818 1.51415 21.5198
1 13.2182 1.40826 21.889
1 11.2838 1.41571 23.4647
2 13.2412 1.4442 23.8806
1 13.2431 -0.515054 24.3007
1 13.2432 1.44889 25.8607
2 13.256 -0.516861 26.2809
1 11.3109 27.0052 26.6823
1 13.2518 -0.514787 28.2667
2 11.2553 3.40165 28.6449
1 11.2984 5.34698 0.223551
1 11.1478 3.58294 1.77645
2 11.5057 5.3583 2.19865
1 13.2519 5.37379 2.77334
1 11.0075 5.36056 4.0483
2 13.2344 5.37628 4.67902
1 13.245 3.4566 5.06919
1 13.2653 5.37662 6.61421
2 13.2546 3.41433 7.06628
1 11.2999 3.3983 7.48248
1 13.2517 3.42133 9.04935
2 11.2969 3.4103 9.46801
1 11.2908 5.3744 9.86889
1 11.2804 3.41159 11.4474
2 11.2838 5.374 11.8494
1 13.2059 5.39074 12.2499
1 11.2824 5.39306 13.8517
2 13.1674 5.38601 14.2818
1 13.2627 3.4116 14.6761
1 13.2396 5.38958 16.2596
2 13.2594 3.41233 16.644
1 11.2874 3.41946 16.7543
1 13.431 3.39336 18.5739
1 11.2539 5.57248 19.5754
1 11.2821 3.44588 21.4202
2 11.2758 5.40592 21.5091
1 13.2414 5.37732 21.894
1 11.2779 5.40149 23.4828
2 13.2419 5.36626 23.8792
1 13.2309 3.40876 24.2912
1 13.2371 5.37014 25.8657
2 13.2275 3.41548 26.2774
1 11.2766 3.42552 26.6702
1 13.2201 3.41996 28.2877
2 11.2524 7.24406 28.6364
1 11.2807 9.11145 0.02953
1 11.139 7.12569 1.7803
1 13.3875 9.28046 2.74216
1 11.2832 9.29133 4.58642
2 13.2426 9.29925 4.69297
1 13.2592 7.29741 5.06765
1 13.2765 9.30323 6.65864
2 13.3439 7.34601 7.05909
1 11.4735 7.32755 7.54269
1 13.2974 7.34874 9.07808
2 11.2931 7.33207 9.47681
1 11.29 9.26423 9.85066
1 11.3008 7.32638 11.4617
2 11.289 9.21967 11.8761
1 13.2632 9.30683 12.304
1 11.2941 9.29154 13.8505
2 13.2585 9.32865 14.2784
1 13.2363 7.36365 14.6776
1 13.2393 9.32406 16.2537
2 13.2429 7.35866 16.6485
1 11.2294 7.36258 17.0636
1 13.0604 7.36561 18.5769
2 11.1791 7.43941 19.075
1 11.2596 9.33106 19.4938
1 11.2443 7.39754 21.1033
2 11.2632 9.31043 21.4922
1 13.2455 9.27615 21.8924
1 11.2641 9.28309 23.4544
2 13.2435 9.19968 23.8625
1 13.2408 7.30879 24.2864
1 13.224 9.2335 25.8967
2 13.2311 7.31363 26.2837
1 11.2704 7.31593 26.6716
1 13.2276 7.32103 28.2887
1 11.2872 13.463 0.320448
1 11.2968 11.4832 2.09827
2 11.2851 13.3598 2.2672
1 13.3004 13.2437 2.65543
1 11.4726 13.2868 4.20135
2 13.3427 13.2559 4.67569
1 13.2588 11.2853 5.08736
1 13.2846 13.2532 6.65521
2 13.2505 11.2759 7.06644
1 11.2855 11.2672 7.46174
1 13.2482 11.2717 9.05075
2 11.2788 11.2605 9.44132
1 11.2896 13.2255 9.53966
1 11.2852 11.0895 11.3844
1 13.4468 13.253 12.3837
1 11.2539 13.3355 14.1737
2 13.2445 13.2476 14.3046
1 13.2345 11.3028 14.7068
1 13.2271 13.295 16.2909
2 13.2322 11.2933 16.6861
1 11.2822 11.2734 17.0859
1 13.2278 11.2749 18.6722
2 11.2647 11.2247 19.0766
1 11.2285 13.0905 19.5436
1 11.2682 11.2212 21.1165
2 11.163 13.153 21.4909
1 13.0268 13.3541 21.5913
1 11.0623 13.2548 23.3904
1 13.2569 11.0539 24.3322
1 13.2285 13.036 26.1216
2 13.202 11.1633 26.3022
1 11.2538 11.2292 26.3843
1 13.3936 11.2377 28.2689
2 11.2654 15.3256 -0.0920916
1 11.2769 17.2242 0.270283
1 11.2512 15.2918 1.9215
2 11.2516 17.2138 2.26681
1 13.2106 17.1791 2.6853
1 11.2615 17.196 4.24234
2 13.2372 17.1751 4.66332
1 13.2624 15.218 5.08849
1 13.2219 17.1722 6.63798
2 13.2568 15.2208 7.06731
1 11.2848 15.2145 7.44351
1 13.2605 15.2103 9.04198
2 11.2805 15.2108 9.40673
1 11.2796 17.193 9.5366
1 11.2944 15.2072 11.2869
1 13.4214 17.1717 12.3588
1 11.2621 17.0833 14.1763
2 13.2381 17.1686 14.2834
1 13.2836 15.2011 14.6735
1 13.2657 17.1463 16.2483
2 13.52 15.2298 16.5756
1 12.5731 15.3455 18.2066
2 11.1556 14.8669 19.2429
1 11.2849 15.3981 20.9896
2 11.3569 17.1933 21.5382
1 13.2398 17.1454 21.6764
1 13.0973 15.3204 24.0166
1 13.2209 17.4155 26.0708
1 11.2631 15.2421 26.8543
1 13.2518 15.231 28.6282
2 11.2783 19.1593 28.6829
1 11.2697 21.1017 0.26586
1 11.2515 19.1507 1.84424
2 11.1665 21.0927 2.25448
1 13.0526 21.1007 2.75113
1 11.2207 21.1042 4.2682
2 13.2279 21.1026 4.68285
1 13.214 19.1374 5.07249
1 13.2132 21.1045 6.65581
2 13.1478 19.1386 7.05179
1 11.2491 19.1556 7.46523
1 13.1784 19.1594 9.08386
2 11.2553 19.1619 9.45487
1 11.2673 21.1615 9.86047
1 11.2724 19.3346 11.3941
2 11.2839 21.207 11.8776
1 13.2491 21.1173 12.2961
1 11.2903 21.1381 13.8528
2 13.2478 21.107 14.2789
1 13.2369 19.132 14.6871
1 13.2303 21.0981 16.266
2 13.2592 19.1126 16.6573
1 11.3167 19.1158 17.0449
1 13.2182 19.0853 18.6519
2 11.3218 19.3325 18.9325
1 11.2845 21.0933 19.4384
1 11.3216 18.8966 20.774
2 11.2813 21.2493 21.264
1 12.9359 21.1323 22.1365
2 13.5275 21.2091 23.9535
1 13.0332 19.4113 24.3163
1 13.2978 21.1782 25.8876
2 13.2329 19.2709 26.3085
1 11.2872 19.1752 26.7148
1 13.2494 19.1747 28.2878
2 11.2848 23.0574 -0.118231
1 11.2904 24.99 0.237328
1 11.2709 23.0372 1.86205
2 11.2896 24.9493 2.25127
1 13.204 25.0453 2.64644
1 11.2858 25.031 4.26061
2 13.1662 25.0493 4.67343
1 13.2325 23.0706 5.07498
1 13.2319 25.0478 6.64443
2 13.2435 23.0744 7.04264
1 11.4169 23.0879 7.55435
1 13.2404 23.0787 9.11458
2 11.2798 23.0935 9.49391
1 11.2793 25.0546 9.88256
1 11.2935 23.1074 11.4757
2 11.2824 25.0525 11.8688
1 13.246 25.038 12.2943
1 11.2821 25.0318 13.8488
2 13.2452 25.0363 14.273
1 13.2536 23.0699 14.6785
1 13.2332 25.0416 16.2509
2 13.1784 23.0746 16.6598
1 11.2567 23.1094 16.7931
1 13.3417 23.1697 18.6414
1 11.2777 23.1753 21.28
2 11.2807 25.0382 21.6915
1 13.1933 25.0448 21.8902
1 11.2801 25.0677 23.574
2 13.1786 25.0436 23.9155
1 13.2059 23.0675 24.295
1 13.2721 25.0469 25.8742
2 13.3291 23.1064 26.295
1 11.4548 23.0746 26.7719
1 13.2942 23.0791 28.2989
2 15.212 -0.503479 28.6711
1 15.1908 1.46351 0.274211
1 15.2047 -0.487742 1.83941
2 15.2191 1.47326 2.24073
1 17.038 1.47022 2.76194
1 15.2074 1.47899 4.30921
2 17.1853 1.55204 4.69584
1 17.1617 -0.307476 5.15207
1 17.1663 1.51139 6.71414
2 17.1784 -0.400473 7.10622
1 15.2023 27.008 7.47276
1 17.1664 -0.493624 9.08192
2 15.2083 27.0014 9.446
1 15.2113 1.45257 9.55902
1 15.2107 26.8247 11.3799
1 17.3692 1.44415 12.3404
1 15.2335 1.4297 14.1709
2 17.2035 1.37363 14.2748
1 17.1718 -0.507422 14.6534
1 17.1899 1.43094 16.3009
2 17.0831 -0.445919 16.6896
1 15.173 -0.513075 17.1076
1 17.1297 -0.513221 18.7022
2 15.1845 26.9895 19.0895
1 15.1926 1.40668 19.492
1 15.1923 26.9962 21.0733
2 15.1866 1.42443 21.4764
1 17.1331 1.45178 21.8577
1 15.1902 1.4549 23.4555
2 17.122 1.54109 23.8631
1 17.1583 -0.332653 24.3734
1 17.1702 1.49865 25.8964
2 17.1774 -0.504092 26.3056
1 15.2114 -0.503509 26.692
1 17.177 -0.501891 28.2738
2 15.1305 3.41353 28.6697
1 15.1808 5.3801 0.273312
1 15.2641 3.4654 1.83385
2 14.9955 5.38215 2.17771
1 15.5333 5.3817 4.00392
2 17.2086 5.39054 4.89447
1 17.2037 3.45319 5.1329
1 17.1997 5.38178 6.77123
2 17.1855 3.41616 7.11629
1 15.2105 3.4458 7.46933
1 17.1868 3.41418 9.06974
2 15.2119 3.43182 9.44401
1 15.2033 5.43109 9.8416
1 15.2054 3.59995 11.3764
2 15.2034 5.47212 11.8495
1 17.1868 5.40601 11.9658
1 15.0285 5.39863 13.7818
1 17.206 3.2437 14.7464
1 17.1875 5.34702 16.622
2 17.197 3.39482 16.6902
1 15.2607 3.39749 17.0542
1 17.2109 3.36438 18.6834
2 15.3041 3.31173 19.0729
1 15.2368 5.18778 19.569
1 15.2083 3.35676 21.0933
2 15.2034 5.3482 21.5049
1 17.1579 5.36668 21.8963
1 15.2 5.35633 23.4824
2 17.1604 5.38675 23.8894
1 17.139 3.4408 24.2832
1 17.1652 5.38685 25.8742
2 17.1663 3.43125 26.2612
1 15.1517 3.41776 26.6657
1 16.9961 3.42852 28.1882
2 15.1368 7.35129 28.6685
1 15.2392 9.31623 0.266741
1 15.2545 7.29992 1.82878
2 15.2072 9.29872 2.22828
1 17.0096 9.31336 2.75178
1 15.1797 9.30025 4.31433
2 17.0753 9.29449 4.70795
1 17.1772 7.32761 5.14361
1 17.163 9.31185 6.68624
2 17.1916 7.36655 7.11314
1 15.2408 7.34817 7.48103
1 17.1924 7.36847 9.07386
2 15.2278 7.36125 9.47269
1 15.2138 9.32144 9.87837
1 15.2235 7.38121 11.4684
2 15.2091 9.33455 11.8558
1 17.181 9.32031 12.271
1 15.2593 9.37514 13.8437
2 17.177 9.11367 14.1693
1 17.2142 7.3903 14.8008
1 17.1576 9.63539 15.9962
2 17.1897 7.269 16.6938
1 15.2342 7.38516 16.76
1 17.3643 7.40289 18.5945
1 15.203 9.40958 19.5184
1 15.208 7.30921 21.3861
2 15.214 9.23249 21.4988
1 17.1757 9.28673 21.8796
1 15.2178 9.28867 23.4861
2 17.178 9.2853 23.8566
1 17.1517 7.34219 24.2816
1 17.2229 9.3127 25.8624
2 17.1737 7.34634 26.2545
1 15.1666 7.35426 26.6611
1 16.9984 7.33182 28.1841
2 15.2998 11.2742 28.6681
1 15.2623 13.2175 0.249542
1 15.2591 11.2786 1.81963
2 15.2121 13.239 2.24149
1 17.1424 13.2738 2.67016
1 15.2419 13.2686 4.26103
2 17.1294 13.177 4.66081
1 17.1527 11.2452 5.06279
1 17.1684 13.1486 6.61814
2 17.1734 11.2362 7.06262
1 15.2071 11.2714 7.49023
1 17.1849 11.2709 9.04216
2 15.2156 11.2776 9.46263
1 15.229 13.2461 9.86933
1 15.2282 11.2813 11.4406
2 15.3022 13.233 11.85
1 17.2008 13.2398 12.2852
1 15.3158 13.1983 13.8905
2 17.1986 13.5387 14.1845
1 17.1906 12.9868 16.0091
2 17.0734 11.2966 16.8904
1 15.1749 11.304 17.1243
1 17.1273 11.2988 18.782
2 15.1735 11.2934 19.1117
1 15.1632 13.1614 19.2968
1 15.185 11.1189 21.0678
1 17.3757 13.2853 21.9179
1 15.432 13.2522 23.7175
2 17.303 13.2336 23.8808
1 17.1768 11.2124 24.2567
1 17.3211 12.9785 25.8174
2 16.8987 11.1645 26.1774
1 15.1389 11.2462 26.6965
1 17.3814 11.2708 28.0508
2 15.2251 15.1952 -0.0931768
1 15.1886 17.1407 0.219534
1 15.1866 15.1788 1.87306
2 15.0933 17.0858 2.22146
1 16.9922 17.1204 2.59351
1 15.1893 17.1609 4.23678
2 17.195 17.1498 4.4367
1 17.1581 15.458 5.32664
2 17.1729 14.9243 7.15699
1 15.2568 15.2506 7.49105
1 17.1754 15.184 9.05316
2 15.2104 15.2198 9.4793
1 15.2049 17.1698 9.89026
1 15.2451 15.2023 11.4566
2 15.2857 17.1796 11.867
1 17.1735 17.1764 12.2847
1 15.2433 17.1782 13.8984
2 17.1803 17.2152 14.2856
1 17.2206 15.3107 14.7028
1 17.1972 17.1995 16.2993
2 17.2645 15.2742 16.656
1 15.3569 15.1623 16.8026
1 17.3834 15.1802 18.5928
1 15.1875 17.3158 19.6838
2 15.161 17.5022 21.5817
1 17.1285 17.1652 21.8288
1 15.3701 17.1858 23.4239
2 17.2408 17.1655 23.8835
1 17.2087 15.2052 23.9892
1 17.1846 17.355 25.8162
1 15.2334 15.1901 26.8498
1 17.2073 15.2066 28.622
2 15.2102 19.1384 28.649
1 15.2197 21.1118 -0.0458863
1 15.1751 18.9663 1.76021
1 17.3583 21.0833 2.72695
1 15.1963 21.0735 4.58015
2 17.1751 20.9816 4.65971
1 17.1739 19.008 4.82264
1 17.2089 21.0421 6.54317
1 15.0097 19.0724 7.53357
1 16.9669 19.1138 9.27714
2 15.0929 19.1419 9.49584
1 15.1957 21.1039 9.88265
1 15.1955 19.1467 11.4687
2 15.2089 21.1018 11.8724
1 17.1744 21.0943 12.2721
1 15.2102 21.1001 13.8592
2 17.1775 21.0997 14.2473
1 17.1718 19.1169 14.6641
1 17.1732 20.9305 16.1888
2 17.1744 19.0754 16.6974
1 15.1953 19.1233 17.1097
1 17.1607 19.1409 18.6731
2 15.1905 19.2069 19.0816
1 15.1673 21.1498 19.4735
1 15.1571 19.3051 21.0939
2 15.2862 21.1728 21.462
1 17.2189 21.1215 21.8461
1 15.2987 21.1172 23.4135
2 17.2167 21.039 23.8504
1 17.1863 19.1574 24.2581
1 17.1849 21.0963 25.888
2 17.1804 19.2219 26.2975
1 15.207 19.1659 26.669
1 17.177 19.1545 28.27
2 15.2236 23.0904 28.6603
1 15.1992 25.0954 0.226684