1810
Atoms. Timestep: 452
2 -0.181521 -0.214916 -0.0338361
1 -0.204229 1.70748 0.409395
1 -0.372531 -0.217448 1.98216
2 -0.170507 1.75693 2.37535
1 1.70925 1.70177 2.77353
1 -0.22358 1.70291 4.34451
2 1.69725 1.70184 4.75652
1 1.70044 -0.216231 5.15849
1 1.69853 1.70197 6.73471
2 1.69956 -0.222241 7.13741
1 -0.226176 -0.223847 7.52665
1 1.69945 -0.223423 9.11098
2 -0.226201 -0.221491 9.50877
1 -0.224464 1.70051 9.91307
1 -0.221132 -0.221644 11.4892
2 -0.224195 1.70011 11.892
1 1.69883 1.70029 12.2917
1 -0.224111 1.70018 13.8704
2 1.70015 1.70008 14.2716
1 1.70005 -0.223547 14.6724
1 1.69928 1.70016 16.25
2 1.70485 -0.22374 16.6467
1 -0.222624 -0.223336 17.0507
1 1.7061 -0.223926 18.6176
2 -0.21402 -0.223298 19.0253
1 -0.230413 1.70899 19.4217
1 -0.120404 -0.190846 20.974
2 -0.218334 1.70508 21.4079
1 1.70632 1.71338 21.8152
1 -0.224382 1.69815 23.3861
2 1.69998 1.70071 23.7897
1 1.70556 -0.222144 24.1907
1 1.6998 1.70024 25.7683
2 1.70457 -0.225246 26.1633
1 -0.218621 -0.230275 26.566
1 1.71098 -0.220524 28.1437
2 -0.224713 3.62668 -0.00710711
1 -0.222539 5.54876 0.391092
1 -0.225051 3.63642 1.97477
2 -0.222656 5.55281 2.37254
1 1.69976 5.54423 2.77082
1 -0.224365 5.54268 4.35029
2 1.69582 5.54748 4.75328
1 1.69605 3.62489 5.1565
1 1.69951 5.55225 6.72732
2 1.69748 3.62859 7.13512
1 -0.224367 3.62293 7.53365
1 1.69815 3.62438 9.11374
2 -0.224512 3.62422 9.51249
1 -0.223558 5.5435 9.9227
1 -0.224198 3.62285 11.4924
2 -0.22444 5.54731 11.8947
1 1.70003 5.54772 12.2923
1 -0.22431 5.54782 13.8707
2 1.70053 5.54623 14.2702
1 1.70033 3.6237 14.6722
1 1.69659 5.54717 16.2488
2 1.69922 3.62424 16.6507
1 -0.224325 3.62495 17.051
1 1.69914 3.6243 18.6299
2 -0.224822 3.62676 19.0291
1 -0.224049 5.54876 19.4314
1 -0.221494 3.62606 21.008
2 -0.224088 5.54852 21.4098
1 1.69986 5.5481 21.811
1 -0.224626 5.54758 23.3877
2 1.70002 5.54691 23.7888
1 1.70004 3.62427 24.1905
1 1.70062 5.54698 25.7686
2 1.701 3.62426 26.1688
1 -0.221502 3.62378 26.5683
1 1.70003 3.62298 28.1478
2 -0.22363 7.46796 -0.00726361
1 -0.226113 9.38446 0.394994
1 -0.208354 7.46368 1.96601
2 -0.212709 9.39031 2.36963
1 1.7021 9.39114 2.77181
1 -0.234068 9.40415 4.31125
2 1.70158 9.3962 4.84269
1 1.70015 7.45291 5.13474
1 2.45605 9.38641 6.68031
2 1.70014 7.57923 7.11299
1 -0.25686 7.36945 7.56866
1 1.70085 7.4986 9.10671
2 -0.222643 7.46327 9.51713
1 -0.225513 9.39175 9.92036
1 -0.223165 7.47003 11.4931
2 -0.225351 9.39477 11.8906
1 1.69964 9.39769 12.2906
1 -0.222401 9.3834 13.857
2 1.6911 9.39625 14.267
1 1.70629 7.46291 14.6636
1 1.59679 9.36365 16.2149
2 1.69436 7.46791 16.6492
1 -0.23034 7.4598 17.0566
1 1.70057 7.47385 18.6273
2 -0.224261 7.47147 19.0308
1 -0.215781 9.38817 19.4367
1 -0.22435 7.47106 21.01
2 -0.225978 9.39771 21.4092
1 1.68971 9.40264 21.8051
1 -0.225379 9.39499 23.3886
2 1.6948 9.38878 23.7847
1 1.68706 7.46412 24.1923
1 1.70246 9.38888 25.7626
2 1.69981 7.46989 26.1683
1 -0.223827 7.47224 26.5687
1 1.69993 7.47021 28.1459
2 -0.283365 11.2635 -0.00631392
1 -0.0920455 13.2422 0.380591
1 -0.210209 11.3219 1.95949
2 -0.250827 13.2469 2.39168
1 1.69985 13.2455 2.63394
1 -0.225414 13.2427 4.31007
2 1.69925 13.2466 4.82922
1 1.70293 11.3232 5.11656
1 2.45357 13.2521 6.67699
2 1.69874 11.3222 7.09415
1 -0.298678 11.3205 7.60844
1 1.69958 11.3201 9.10237
2 -0.228254 11.318 9.52582
1 -0.241673 13.2346 9.91326
1 -0.216155 11.3163 11.4924
2 -0.218617 13.2426 11.8897
1 1.70268 13.2275 12.3027
1 -0.233289 13.248 13.8558
2 1.68981 13.2458 14.2703
1 1.7255 11.3209 14.676
1 1.60062 13.2769 16.2148
2 1.80782 11.3217 16.6705
1 -0.204088 11.3264 17.0559
1 1.68311 11.319 18.6504
2 -0.21948 11.3157 19.0318
1 -0.211333 13.247 19.4284
1 -0.23238 11.3217 21.0087
2 -0.225497 13.2444 21.4102
1 1.69042 13.2387 21.8081
1 -0.20878 13.2344 23.3982
2 1.69845 13.2467 23.8153
1 1.68449 11.3277 24.1879
1 1.69699 13.2434 25.8831
2 1.70067 11.287 26.1404
1 -0.213572 11.3197 26.5708
1 1.68798 11.4535 28.1698
2 -0.2851 15.2194 -0.00328634
1 -0.346978 17.0739 0.433104
1 -0.194139 15.1596 1.9587
2 -0.231109 17.0854 2.38137
1 1.68172 17.0892 2.78705
1 -0.222663 17.1038 4.36544
2 1.69888 17.094 4.76239
1 1.70259 15.1868 5.12847
1 1.69945 17.0876 6.73143
2 1.70423 15.0527 7.10408
1 -0.263058 15.2791 7.55823
1 1.67652 15.0445 9.0588
2 -0.217511 15.1715 9.50798
1 -0.273033 17.0928 9.91518
1 -0.104335 15.14 11.4516
2 -0.316241 17.0859 11.9112
1 1.68386 17.0852 12.3472
1 -0.20199 17.105 13.8871
2 1.70674 17.0964 14.2814
1 1.70991 15.1745 14.6671
1 1.70316 17.0961 16.2531
2 1.69766 15.1735 16.6485
1 -0.208754 15.1636 17.0649
1 1.70298 15.1703 18.6324
2 -0.218713 15.1751 19.034
1 -0.204478 17.0982 19.4347
1 -0.222034 15.1669 21.0069
2 -0.224539 17.0937 21.4056
1 1.69749 17.0966 21.8102
1 -0.233645 17.0938 23.3709
2 1.68926 17.0995 23.7742
1 1.69516 15.1525 24.1818
1 1.58967 17.0531 25.6902
2 1.69246 15.1982 26.1427
1 -0.223805 15.1592 26.5929
1 1.69643 15.0219 28.1608
2 -0.122709 19.0205 -0.0215944
1 -0.329205 20.9756 0.44874
1 -0.18715 19.0091 1.98238
2 -0.285339 20.8884 2.38234
1 1.68869 21.0882 2.77338
1 -0.21668 20.9334 4.35737
2 1.69932 20.9078 4.77982
1 1.70409 19.0103 5.15959
1 1.70028 20.9568 6.71978
2 1.70038 19.0223 7.12827
1 -0.229037 19.0138 7.52077
1 1.6748 19.1225 9.06319
2 -0.21438 19.0241 9.50423
1 -0.266679 20.9556 9.9144
1 -0.0506361 19.0207 11.4361
2 -0.323466 20.9514 11.9077
1 1.69995 20.9563 12.3002
1 -0.200895 20.9426 13.8798
2 1.69964 20.9431 14.2727
1 1.70702 19.0214 14.6794
1 1.70335 20.943 16.2529
2 1.69587 19.0195 16.6509
1 -0.224144 19.0184 17.063
1 1.69919 19.0196 18.6291
2 -0.222591 19.017 19.0321
1 -0.226866 20.9369 19.4221
1 -0.214394 19.0202 21.0101
2 -0.220241 20.9392 21.4032
1 1.7067 20.9289 21.8116
1 -0.223207 20.9589 23.369
2 1.69426 20.9435 23.7802
1 1.72018 19.0223 24.1828
1 1.59064 21.0011 25.7005
2 1.7948 19.0209 26.2716
1 -0.225605 19.0201 26.5508
1 1.66451 19.7702 28.132
2 -0.259859 22.8682 -0.0288471
1 -0.206404 24.7967 0.410019
1 -0.0761309 22.8749 1.99044
2 -0.22604 24.794 2.37758
1 1.70551 24.6575 2.76251
1 -0.210237 24.7887 4.34888
2 1.70454 24.8265 4.78045
1 1.70179 22.8687 5.0351
1 1.70024 24.7834 6.72875
2 1.70197 22.8675 7.10494
1 -0.218368 22.8679 7.52494
1 1.70559 22.8687 9.09725
2 -0.212447 22.8712 9.50439
1 -0.230952 24.8018 9.90318
1 -0.110276 22.9037 11.4524
2 -0.217442 24.7968 11.89
1 1.70571 24.8056 12.2963
1 -0.22308 24.7893 13.8696
2 1.70031 24.7921 14.2722
1 1.70314 22.8702 14.6748
1 1.69985 24.7929 16.2501
2 1.70089 22.8672 16.6482
1 -0.215315 22.8813 17.0598
1 1.70564 22.8672 18.6225
2 -0.214089 22.8677 19.0277
1 -0.250362 24.7922 19.4363
1 -0.120749 22.8354 20.9741
2 -0.330678 24.7918 21.4308
1 1.69592 24.792 21.8147
1 -0.205364 24.7926 23.4065
2 1.7011 24.7942 23.79
1 1.71319 22.8828 24.1778
1 1.70374 24.7905 25.7747
2 1.69766 22.8729 26.1947
1 -0.210473 22.8862 26.5739
1 1.69685 22.8901 28.2676
2 3.6252 -0.221817 -0.007682
1 3.62625 1.70313 0.393333
1 3.62899 -0.209633 1.97455
2 3.62754 1.7075 2.37242
1 5.55152 1.69887 2.78575
1 3.61475 1.69997 4.35518
2 5.49321 1.64382 4.75405
1 5.54594 -0.236109 5.15229
1 5.54762 1.70201 6.72136
2 5.55094 -0.223482 7.13411
1 3.6236 -0.222107 7.53122
1 5.54177 -0.208784 9.10623
2 3.6235 -0.224139 9.51182
1 3.62398 1.70128 9.91268
1 3.62543 -0.223806 11.4895
2 3.62349 1.69989 11.8891
1 5.54797 1.70001 12.2919
1 3.61988 1.70012 13.8611
2 5.53954 1.70075 14.2669
1 5.57499 -0.22364 14.6774
1 5.44417 1.73357 16.2151
2 5.65251 -0.222332 16.6727
1 3.62988 -0.22395 17.0554
1 5.5271 -0.222117 18.6511
2 3.62268 -0.224175 19.0313
1 3.61998 1.7023 19.4329
1 3.62189 -0.224303 21.0115
2 3.62546 1.70016 21.4098
1 5.54685 1.70054 21.815
1 3.6249 1.70004 23.3897
2 5.5481 1.70075 23.7907
1 5.54853 -0.223175 24.1899
1 5.54871 1.70085 25.7679
2 5.54958 -0.223728 26.1685
1 3.62722 -0.224526 26.567
1 5.54821 -0.225079 28.1487
2 3.62506 3.62498 -0.00611823
1 3.62498 5.54693 0.39508
1 3.62526 3.6251 1.9724
2 3.62353 5.54541 2.37267
1 5.55113 5.55021 2.78513
1 3.61478 5.54469 4.35156
2 5.49282 5.60475 4.75307
1 5.68655 3.62318 5.13897
1 5.56029 5.54013 6.71723
2 5.51483 3.62361 7.15733
1 3.6167 3.62345 7.53652
1 5.55691 3.62486 9.10719
2 3.62231 3.62454 9.516
1 3.62518 5.5435 9.92205
1 3.62372 3.62318 11.4925
2 3.62482 5.54782 11.8947
1 5.54951 5.54824 12.2918
1 3.62402 5.54533 13.8697
2 5.54895 5.54841 14.2689
1 5.55512 3.63261 14.6622
1 5.54831 5.54718 16.2484
2 5.54323 3.62864 16.6492
1 3.61807 3.63703 17.0561
1 5.54863 3.62154 18.6275
2 3.62427 3.62494 19.0305
1 3.62419 5.54728 19.4307
1 3.62548 3.62501 21.0086
2 3.62443 5.54668 21.4109
1 5.54846 5.54865 21.8116
1 3.62463 5.54678 23.3892
2 5.54843 5.55196 23.7878
1 5.54922 3.62479 24.1907
1 5.54868 5.5498 25.7652
2 5.55031 3.62552 26.1706
1 3.6257 3.62461 26.5704
1 5.55213 3.62455 28.1531
2 3.62456 7.4667 -0.00604137
1 3.61148 9.37674 0.402378
1 3.62762 7.46537 1.97407
2 3.61895 9.39465 2.37015
1 5.55402 9.39568 2.76502
1 3.64518 9.39423 4.30412
2 5.5494 9.39909 4.75245
1 5.5454 7.48337 5.1547
1 5.57477 9.39024 6.73497
2 5.5564 7.46711 7.13651
1 3.65912 7.36695 7.56669
1 5.55732 7.47741 9.1205
2 3.62519 7.46347 9.51573
1 3.62632 9.39174 9.92074
1 3.62386 7.47033 11.4919
2 3.62385 9.396 11.8936
1 5.54729 9.39873 12.2921
1 3.61749 9.38153 13.867
2 5.54994 9.39286 14.2686
1 5.53795 7.46245 14.6626
1 5.65337 9.35537 16.2221
2 5.5472 7.46623 16.6495
1 3.62279 7.45543 17.0466
1 5.54429 7.4718 18.6301
2 3.62312 7.47275 19.0272
1 3.62477 9.37653 19.4782
1 3.62411 7.45964 21.0083
2 3.62406 9.39027 21.4123
1 5.55061 9.42316 21.8194
1 3.5908 9.29521 23.3548
2 5.54809 9.5029 23.8099
1 5.54806 7.47482 24.1944
1 5.54574 9.37447 25.7799
2 5.54886 7.4715 26.1691
1 3.62295 7.46793 26.5709
1 5.55019 7.46762 28.1496
2 3.67848 11.2579 -0.00275183
1 3.47844 13.2422 0.378811
1 3.63125 11.3205 1.95399
2 3.65723 13.2339 2.38857
1 5.54715 13.2395 2.81975
1 3.62034 13.2468 4.30474
2 5.54346 13.242 4.75705
1 5.55055 11.3097 5.14968
1 5.4789 13.2121 6.69389
2 5.55592 11.3152 7.13564
1 3.69197 11.3116 7.61242
1 5.56879 11.321 9.12989
2 3.62772 11.3243 9.5264
1 3.61767 13.25 9.92602
1 3.62069 11.3196 11.4894
2 3.62325 13.2457 11.8949
1 5.52952 13.2393 12.2785
1 3.62232 13.235 13.867
2 5.6547 13.236 14.2509
1 5.41329 11.2881 14.7148
1 5.67938 13.2709 16.2174
2 5.42865 11.3194 16.6762
1 3.62227 12.079 17.0981
1 5.56342 11.3237 18.6522
2 3.62297 11.321 18.9431
1 3.62438 13.2655 19.4792
1 3.62243 11.3213 21.0114
2 3.62211 13.2528 21.4148
1 5.54923 13.2185 21.8198
1 3.58803 13.3431 23.3593
2 5.54791 13.138 23.8116
1 6.30443 11.3215 24.2298
1 5.54978 13.2632 25.7876
2 5.54963 11.315 26.0758
1 3.59152 11.3277 26.6185
1 5.53268 11.2128 28.1034
2 3.67834 15.2166 -0.0113005
1 3.60942 17.0313 0.507939
1 3.62884 15.1348 1.98484
2 3.56169 17.0341 2.39815
1 5.55183 17.233 2.77218
1 3.6239 17.096 4.33843
2 5.54248 17.0619 4.77288
1 5.57131 15.1645 5.16621
1 5.46019 17.1464 6.69156
2 5.65635 15.1652 7.15642
1 3.66569 15.2928 7.57307
1 5.56077 15.058 9.1036
2 3.62494 15.2849 9.53642
1 4.37595 17.1029 9.95361
1 3.61533 15.1533 11.5109
2 3.62266 17.0957 11.8022
1 5.54169 17.0935 12.3258
1 3.62051 17.1074 13.8619
2 5.64426 17.1035 14.2616
1 5.37085 15.1778 14.722
1 5.57907 17.1016 16.2528
2 5.53985 15.1731 16.6563
1 3.61756 15.188 17.0623
1 5.54522 15.1684 18.6306
2 3.62308 15.1701 19.0315
1 3.62459 17.0961 19.4306
1 3.624 15.1826 21.008
2 3.62366 17.0952 21.4088
1 5.54988 17.0974 21.808
1 3.62423 17.0923 23.3815
2 5.55563 17.0946 23.7754
1 5.54101 15.1481 24.1773
1 5.65893 17.0439 25.6921
2 5.55496 15.1726 26.1615
1 3.61172 15.1533 26.5686
1 5.53725 15.2499 28.1104
2 3.57979 19.0209 -0.169121
1 3.61755 21.0391 0.513068
1 3.75939 19.0161 1.99136
2 3.62362 20.9413 2.40019
1 5.56179 20.7982 2.76933
1 3.62404 20.9424 4.34179
2 5.55292 20.9798 4.77584
1 5.54979 19.0293 5.02749
1 5.5393 20.9398 6.7171
2 5.54074 19.0348 7.09926
1 3.6191 19.0076 7.53196
1 5.57135 19.1065 9.05836
2 3.6236 18.9134 9.53147
1 3.62355 20.9399 9.91799
1 3.623 19.0411 11.5095
2 3.62151 20.945 11.8899
1 5.54339 20.9446 12.302
1 3.6148 20.9599 13.8675
2 5.53748 20.9453 14.276
1 5.43582 19.0539 14.7147
1 5.551 20.9521 16.2619
2 5.53842 19.0219 16.6585
1 3.61915 19.0189 17.0614
1 5.54497 19.0194 18.6335
2 3.62214 19.0187 19.0327
1 3.62437 20.9432 19.4315
1 3.62492 19.0182 21.0088
2 3.62532 20.9437 21.4071
1 5.54876 20.9397 21.808
1 3.62586 20.9465 23.3808
2 5.55549 20.9398 23.7796
1 5.5297 19.0192 24.1852
1 5.6603 20.9951 25.7013
2 5.45537 19.0176 26.3108
1 3.63003 19.7749 26.5499
1 5.58748 19.7786 28.2064
2 3.66149 22.8803 -0.0331909
1 3.62711 24.7946 0.405182
1 3.49116 22.9023 2.01849
2 3.68317 24.8533 2.37647
1 5.56081 24.7972 2.7762
1 3.62349 24.7968 4.34628
2 5.55137 24.787 4.75634
1 5.54214 22.8759 5.15151
1 5.53901 24.7967 6.73407
2 5.53514 22.8702 7.13281
1 3.62194 22.8672 7.52767
1 5.54798 22.8692 9.10643
2 3.6253 22.8632 9.51015
1 3.62245 24.791 9.9119
1 3.62526 22.866 11.487
2 3.62419 24.7902 11.888
1 5.54172 24.792 12.3004
1 3.61937 24.7912 13.8631
2 5.5383 24.7911 14.2701
1 5.55028 22.8613 14.6647
1 5.44418 24.7583 16.2159
2 5.54734 22.8652 16.6493
1 3.61975 22.8548 17.055
1 5.55043 22.8698 18.6266
2 3.62547 22.8668 19.0304
1 3.62048 24.7894 19.4327
1 3.62575 22.8677 21.0085
2 3.62078 24.7914 21.4083
1 5.54602 24.7926 21.8132
1 3.622 24.7959 23.3849
2 5.54603 24.7953 23.7884
1 5.54155 22.8827 24.1731
1 5.55038 24.7927 25.767
2 5.55652 22.8719 26.1637
1 3.61677 22.8825 26.5699
1 5.56194 22.8954 28.1423
2 7.47254 -0.224778 -0.00991732
1 7.47259 1.70911 0.399301
1 7.47297 -0.229316 1.96961
2 7.47305 1.66693 2.34986
1 9.39404 1.69932 2.78382
1 7.47266 1.83902 4.36731
2 9.45238 1.64733 4.75271
1 9.39682 -0.226303 5.1436
1 9.39884 1.70195 6.72121
2 9.39474 -0.22584 7.13468
1 7.47337 -0.225752 7.53585
1 9.39551 -0.202524 9.11723
2 7.46665 -0.217998 9.51477
1 7.46973 1.70559 9.9077
1 7.47919 -0.212586 11.4994
2 7.47343 1.70474 11.8914
1 9.39743 1.70385 12.2917
1 7.47222 1.70354 13.8713
2 9.40664 1.70268 14.2653
1 9.37557 -0.21294 14.6654
1 9.49898 1.73405 16.2145
2 9.28429 -0.220131 16.6692
1 7.47386 0.539598 17.0906
1 9.41578 -0.226415 18.6458
2 7.47183 -0.221831 18.941
1 7.47292 1.71971 19.4796
1 7.47291 -0.223353 21.0106
2 7.47265 1.69829 21.4172
1 9.39758 1.70113 21.8153
1 7.47221 1.69964 23.3889
2 9.39758 1.70145 23.7908
1 9.38399 -0.217559 24.1947
1 9.39672 1.70174 25.7686
2 9.39679 -0.223632 26.1693
1 7.47263 -0.224145 26.5692
1 9.39466 -0.22316 28.1483
2 7.47267 3.62457 0.0211577
1 7.47305 5.5401 0.399481
1 7.47294 3.62477 2.09122
2 7.47307 5.58325 2.34935
1 9.39528 5.55004 2.78531
1 7.47322 5.41061 4.36646
2 9.45311 5.60496 4.75365
1 9.25818 3.6251 5.14057
1 9.39902 5.54663 6.7219
2 9.43096 3.62419 7.15754
1 7.47352 3.62345 7.41629
1 9.38879 3.62488 9.10768
2 7.47293 3.62454 9.48581
1 7.47317 5.54482 9.90697
1 7.47307 3.62522 11.4857
2 7.47295 5.5471 11.8895
1 9.39732 5.55005 12.2915
1 7.47449 5.55287 13.8696
2 9.39921 5.54887 14.2653
1 9.39124 3.63027 14.6585
1 9.39911 5.53267 16.2389
2 9.40293 3.62465 16.6496
1 7.47262 3.64212 17.0477
1 9.39686 3.62095 18.6285
2 7.47275 3.62247 19.0295
1 7.46149 5.54167 19.4341
1 7.47303 3.63238 21.0181
2 7.47216 5.55054 21.4112
1 9.39494 5.54572 21.812
1 7.47218 5.54837 23.3897
2 9.39696 5.54799 23.7893
1 9.39593 3.6245 24.1907
1 9.39621 5.54685 25.769
2 9.39477 3.62446 26.1708
1 7.47256 3.62438 26.5745
1 9.39229 3.62441 28.1537
2 7.47284 7.47864 -0.0103282
1 7.4745 9.40031 0.401914
1 7.47362 7.4804 1.96827
2 7.47551 9.39764 2.37478
1 9.40045 9.39302 2.77617
1 7.47303 9.39246 4.35265
2 9.39597 9.39955 4.75322
1 9.39802 7.48396 5.15446
1 9.40037 9.39627 6.73464
2 9.395 7.47355 7.13476
1 7.47524 7.4678 7.53463
1 9.39862 7.47123 9.11121
2 7.47571 7.46995 9.51271
1 7.47622 9.38543 9.90342
1 7.47444 7.47122 11.4904
2 7.47154 9.39458 11.8866
1 9.40705 9.39843 12.2969
1 7.46993 9.37332 13.8628
2 9.3678 9.39337 14.2483
1 9.39972 7.47312 14.6819
1 9.52647 9.38416 16.2767
2 9.34139 7.40637 16.6477
1 7.45915 7.4623 17.0473
1 9.36533 7.35935 18.5892
2 7.46713 7.46845 19.0281
1 7.45821 9.39425 19.4278
1 7.47604 7.46918 20.9984
2 7.47561 9.38823 21.4051
1 9.39253 9.4038 21.8404
1 7.49867 9.29213 23.361
2 9.40541 9.39069 23.7885
1 9.40966 7.4639 24.1976
1 9.39714 9.39316 25.7573
2 9.39762 7.47212 26.1713
1 7.47507 7.46938 26.5705
1 9.39638 7.47144 28.1492
2 7.47548 11.4274 0.0198212
1 8.2261 13.2452 0.436217
1 7.47384 11.3007 1.99255
2 7.47722 13.2388 2.28673
1 9.41877 13.2458 2.82206
1 7.47682 13.2423 4.35827
2 9.40537 13.2449 4.75714
1 9.39145 11.3111 5.1492
1 9.50316 13.2113 6.69802
2 9.40468 11.3163 7.13156
1 7.47703 11.3059 7.52894
1 9.40071 11.321 9.10573
2 7.47946 11.3207 9.50541
1 7.48869 13.2129 9.96559
1 7.47513 11.2869 11.4466
2 7.47322 13.241 11.9775
1 9.41866 13.2467 12.2799
1 7.45731 13.9025 13.8307
2 9.29286 13.2324 14.2523
1 9.50895 11.2811 14.7233
1 9.36969 13.2428 16.2589
2 9.34436 11.3782 16.6538
1 7.44809 11.3107 17.0468
1 9.36213 11.4323 18.5887
2 7.46782 11.3243 19.0313
1 7.46497 13.2531 19.4361
1 7.48086 11.3205 21.0107
2 7.47278 13.2547 21.4061
1 9.40448 13.2434 21.8026
1 7.50712 13.3482 23.3542
2 9.40241 13.2505 23.7884
1 9.414 11.3223 24.1884
1 9.39774 13.2451 25.7668
2 9.39754 11.3129 26.1647
1 7.49626 11.3486 26.6199
1 9.44046 11.2175 28.1204
2 7.48237 15.0581 0.0167098
1 7.59651 17.0462 0.445132
1 7.46697 15.1686 2.00471
2 7.53938 17.0417 2.38199
1 9.41706 17.0949 2.78415
1 7.47386 17.0969 4.34813
2 9.40879 17.0937 4.75001
1 9.36957 15.1713 5.16022
1 9.50375 17.1228 6.68983
2 9.29275 15.1722 7.15167
1 7.47058 15.9274 7.57448
1 9.42035 15.1666 9.12079
2 7.47973 15.1644 9.41995
1 7.473 17.115 9.96106
1 7.46845 15.1677 11.4022
2 7.47011 17.0944 11.9806
1 9.39707 17.0882 12.267
1 7.46317 17.9389 13.814
2 9.404 17.0982 14.2375
1 9.46814 15.1282 14.7692
1 9.39185 17.1004 16.2495
2 9.4036 15.172 16.6726
1 7.47425 15.1826 17.0656
1 9.39947 15.1716 18.6355
2 7.4717 15.172 19.0301
1 7.47314 17.096 19.4309
1 7.47269 15.1751 21.0006
2 7.47444 17.0936 21.4061
1 9.39893 17.0937 21.809
1 7.47782 17.0937 23.3747
2 9.39691 17.0952 23.7863
1 9.40935 15.1765 24.1929
1 9.40236 17.0973 25.7593
2 9.40076 15.1783 26.1634
1 7.48507 15.1373 26.5773
1 9.43946 15.2616 28.1093
2 7.41134 19.016 -0.0597231
1 7.59797 20.9813 0.440955
1 7.32277 19.0142 1.97407
2 7.54026 20.9971 2.37792
1 9.41391 20.9469 2.78236
1 7.47379 20.9479 4.34177
2 9.39972 20.9431 4.74559
1 9.39094 19.0153 5.13232
1 9.40251 20.9171 6.67192
2 9.40336 19.0153 7.1216
1 7.46915 19.0387 7.50199
1 9.35811 18.9034 9.06225
2 7.4653 19.0134 9.50025
1 7.36494 20.9216 9.94688
1 7.4756 19.0409 11.4507
2 7.46417 20.9441 11.8967
1 9.37009 20.9416 12.3529
1 7.45075 20.9723 13.8742
2 9.38796 20.9532 14.2821
1 9.41321 19.0842 14.7467
1 9.29127 20.9343 16.2419
2 9.39159 19.0199 16.6663
1 7.46218 19.0095 17.0646
1 9.39765 19.0204 18.6318
2 7.47131 19.0186 19.0327
1 7.46842 20.9412 19.432
1 7.47284 19.0178 21.0093
2 7.47229 20.942 21.4055
1 9.38903 20.9482 21.8038
1 7.47628 20.9402 23.3755
2 9.39128 20.9372 23.7892
1 9.38841 19.0136 24.1901
1 9.40373 20.9446 25.7656
2 9.3964 19.0185 26.1632
1 7.48236 19.0191 26.5485
1 9.39184 19.0191 28.1375
2 7.47818 22.8738 -0.0049242
1 7.47604 24.7947 0.392691
1 7.46631 22.8861 1.98447
2 7.47761 24.796 2.37364
1 9.40025 24.7899 2.77659
1 7.47376 24.7914 4.35084
2 9.40088 24.7869 4.74518
1 9.3944 22.8671 5.14941
1 9.397 24.8109 6.68031
2 9.38922 22.8877 7.1814
1 7.42524 22.8944 7.4803
1 9.41831 23.7157 9.09094
2 7.54277 22.8805 9.48425
1 7.35939 24.8262 9.94809
1 7.49927 22.8693 11.4838
2 7.4614 24.7933 11.8944
1 9.39533 24.7964 12.2894
1 7.46711 24.7903 13.8635
2 9.39722 24.792 14.2551
1 9.41881 22.8628 14.6714
1 9.39716 24.7937 16.1738
2 9.50951 22.8691 16.6732
1 7.47533 22.8558 17.0536
1 9.37817 22.8713 18.6479
2 7.47201 22.868 19.0299
1 7.46845 24.774 19.4801
1 7.46675 22.8589 21.018
2 7.47067 24.7928 21.4161
1 9.38795 24.785 21.8099
1 7.47083 24.7965 23.3888
2 9.39252 24.797 23.7906
1 9.37957 22.8672 24.185
1 9.39925 24.7917 25.7659
2 9.39971 22.8677 26.1667
1 7.48195 22.8771 26.5723
1 9.39501 22.8791 28.1526
2 11.3175 -0.22427 -0.000567918
1 11.3141 1.70008 0.397013
1 11.3129 -0.21964 1.97572
2 11.3226 1.7034 2.37169
1 13.2425 1.69859 2.78464
1 11.326 1.71375 4.34938
2 13.2435 1.70572 4.75809
1 13.1415 -0.189679 5.18843
1 13.2525 1.70887 6.74194
2 13.2366 -0.223199 7.13755
1 11.3151 -0.223095 7.54317
1 13.2515 -0.209333 9.10791
2 11.3264 -0.220546 9.51538
1 11.3239 1.70305 9.91325
1 11.3147 -0.214675 11.4996
2 11.3217 1.70213 11.8899
1 13.2476 1.70112 12.2907
1 11.3261 1.70378 13.8608
2 13.2453 1.70154 14.2701
1 13.2398 -0.214728 14.6631
1 13.2492 1.70092 16.2497
2 13.2475 -0.219028 16.6475
1 11.3178 -0.207979 17.0513
1 13.2431 -0.226038 18.6242
2 11.3222 -0.224154 19.027
1 11.324 1.70368 19.4296
1 11.3228 -0.210955 21.0094
2 11.3168 1.70318 21.4086
1 13.2285 1.70768 21.7924
1 11.3202 1.69929 23.3885
2 13.2405 1.69155 23.7866
1 13.2335 -0.23495 24.199
1 13.2141 1.70607 25.7619
2 13.2275 -0.223551 26.1704
1 11.315 -0.219767 26.574
1 13.2207 -0.221308 28.1641
2 11.3136 3.62411 -0.00362524
1 11.3172 5.54992 0.396183
1 11.3199 3.62494 1.97349
2 11.3225 5.54609 2.37218
1 13.2416 5.54896 2.78273
1 11.3311 5.54978 4.3542
2 13.2461 5.54833 4.7575
1 13.2437 3.6256 5.15716
1 13.2455 5.54968 6.73384
2 13.249 3.62679 7.1352
1 11.3285 3.62471 7.53733
1 13.2476 3.62551 9.11477
2 11.3235 3.62513 9.51646
1 11.3209 5.54943 9.91385
1 11.322 3.62552 11.4915
2 11.3214 5.54965 11.8914
1 13.2457 5.54941 12.2923
1 11.322 5.54915 13.8693
2 13.2435 5.54653 14.2664
1 13.2452 3.62128 14.6683
1 13.2483 5.53218 16.2393
2 13.2462 3.61992 16.6507
1 11.3277 3.63545 17.0569
1 13.2464 3.62288 18.63
2 11.3219 3.62777 19.0297
1 11.3207 5.55209 19.4384
1 11.3171 3.62558 21.0065
2 11.3188 5.54432 21.4136
1 13.2371 5.53765 21.8002
1 11.3196 5.54572 23.3899
2 13.2402 5.55532 23.7864
1 13.2296 3.62509 24.1834
1 13.2283 5.55185 25.7595
2 13.2361 3.62917 26.1652
1 11.3145 3.62762 26.5694
1 13.2139 3.61723 28.1535
2 11.3242 7.47216 -0.0032497
1 11.3341 9.38977 0.400491
1 11.3185 7.4703 1.97578
2 11.3221 9.39679 2.37423
1 13.2403 9.39707 2.78524
1 11.3209 9.39742 4.35422
2 13.2445 9.39756 4.75697
1 13.2446 7.47405 5.15551
1 13.2463 9.39665 6.7328
2 13.2458 7.47306 7.1333
1 11.3202 7.47076 7.53316
1 13.245 7.47316 9.11116
2 11.3217 7.47436 9.51452
1 11.3213 9.39598 9.91878
1 11.3216 7.47566 11.4966
2 11.3221 9.39661 11.9189
1 13.2388 9.39744 12.2955
1 11.3289 9.38219 13.9826
2 13.281 9.39658 14.2469
1 13.2473 7.47354 14.682
1 13.1102 9.39688 16.2633
2 13.3023 7.40738 16.6467
1 11.3229 7.62897 17.0495
1 13.2794 7.36024 18.5873
2 11.3218 7.53964 19.0828
1 12.0777 9.3968 19.4023
1 11.3213 7.45833 21.0307
2 11.3232 9.39773 21.285
1 13.2602 9.39733 21.8484
1 11.3228 9.3957 23.3874
2 13.2428 9.39839 23.7928
1 13.2262 7.47938 24.1931
1 13.2351 9.40362 25.7658
2 13.2329 7.47475 26.1653
1 11.3197 7.47419 26.5727
1 13.2474 7.47173 28.1418
2 11.3282 11.316 -0.00602628
1 11.3395 13.246 0.391508
1 11.3204 11.3216 1.97186
2 11.3217 13.2455 2.37079
1 13.2465 13.2461 2.77459
1 11.3351 13.2455 4.35222
2 13.2476 13.2454 4.75488
1 13.246 11.3214 5.15558
1 13.2477 13.2458 6.73315
2 13.2469 11.3216 7.13315
1 11.3292 11.3068 7.53792
1 13.2475 11.3207 9.11211
2 11.322 11.317 9.51453
1 11.3288 13.2327 9.90431
1 11.3253 11.3157 11.4954
2 11.3226 13.246 11.8908
1 13.245 13.2467 12.2958
1 11.3238 13.2204 13.8664
2 13.2465 13.2427 14.2697
1 13.2502 11.3182 14.6822
1 13.2408 13.254 16.2491
2 13.3012 11.3836 16.6482
1 11.3267 11.1624 17.0621
1 13.2815 11.4338 18.5901
2 11.3214 11.2551 19.084
1 11.3225 13.2424 19.4393
1 11.3245 11.3361 21.0302
2 11.3238 13.2491 21.414
1 13.2482 13.2495 21.8112
1 11.3234 13.2527 23.3905
2 13.2458 13.2456 23.7889
1 13.2476 11.3239 24.1924
1 13.2489 13.2467 25.7663
2 13.2482 11.3238 26.1681
1 11.3292 11.3276 26.5588
1 13.2405 11.3325 28.1413
2 11.328 15.1752 -0.0067742
1 11.3357 17.1006 0.398985
1 11.3198 15.1692 1.97114
2 11.3281 17.095 2.37146
1 13.2483 17.0937 2.77402
1 11.3304 17.0934 4.34668
2 13.2449 17.0927 4.75226
1 13.2462 15.1681 5.15345
1 13.2463 17.0884 6.7238
2 13.2428 15.1694 7.13051
1 11.3193 15.1714 7.53663
1 13.2462 15.1682 9.10501
2 11.3229 15.1738 9.5038
1 11.328 17.0974 9.913
1 11.3326 15.15 11.4396
2 11.3258 17.086 11.9815
1 13.2729 17.0875 12.2734
1 11.3303 17.8501 13.8345
2 13.1425 17.0935 14.2503
1 13.3515 15.1388 14.7034
1 13.2227 17.0923 16.2459
2 13.2546 15.1735 16.6549
1 11.3295 15.1708 17.0675
1 13.2488 15.1718 18.6335
2 11.3239 15.1672 19.0339
1 11.3219 17.0931 19.4306
1 11.3224 15.1699 21.0085
2 11.322 17.0919 21.4105
1 13.2467 17.0935 21.8109
1 11.3227 17.0933 23.3883
2 13.246 17.0978 23.7875
1 13.2463 15.1706 24.188
1 13.2429 17.0959 25.7639
2 13.2461 15.1712 26.1655
1 11.332 15.1637 26.559
1 13.246 15.1704 28.1456
2 11.3175 19.0195 -0.00502148
1 11.3221 20.9398 0.399037
1 11.3236 19.0187 1.97274
2 11.3265 20.941 2.37328
1 13.2468 20.9443 2.77664
1 11.3218 20.9291 4.34732
2 13.2412 20.9383 4.75662
1 13.242 19.0162 5.15387
1 13.2578 20.9328 6.7411
2 13.2489 19.0066 7.12778
1 11.3283 19.0559 7.54411
1 13.2824 18.9055 9.07377
2 11.3314 19.0882 9.53391
1 12.1696 20.9716 9.93023
1 11.3546 18.9856 11.4891
2 11.3418 20.9336 11.8422
1 13.2689 20.9405 12.3454
1 11.3299 20.9693 13.8737
2 13.2635 20.9467 14.2792
1 13.3462 19.0396 14.7008
1 13.3452 20.9198 16.2272
2 13.2613 19.0144 16.6543
1 11.327 19.0029 17.0552
1 13.2478 19.0198 18.6301
2 11.3228 19.0188 19.0288
1 11.3221 20.9228 19.4787
1 11.3219 19.005 21.0083
2 11.321 20.9355 21.4128
1 13.2471 20.9689 21.8191
1 11.288 20.8405 23.3548
2 13.246 21.0485 23.8107
1 13.2453 19.0211 24.1934
1 13.2337 20.9175 25.7819
2 13.2427 19.0158 26.1683
1 11.3177 19.0135 26.5721
1 13.2435 19.0176 28.148
2 11.3211 22.8677 0.00260566
1 11.3144 24.7939 0.398645
1 11.3185 22.8653 1.97271
2 11.321 24.7925 2.3731
1 13.2222 24.791 2.76393
1 11.3266 24.7916 4.3452
2 13.3515 24.7922 4.73209
1 13.144 22.8346 5.18616
1 13.275 24.7978 6.71657
2 13.2385 22.8765 7.13175
1 11.3339 22.8428 7.538
1 13.2847 22.9813 9.06919
2 11.2192 22.7656 9.5145
1 11.4338 24.83 9.95603
1 11.297 22.8838 11.4952
2 11.3328 24.7931 11.8956
1 13.2543 24.7944 12.3017
1 11.327 24.7954 13.8651
2 13.256 24.7926 14.2703
1 13.2229 22.8711 14.6826
1 13.3504 24.8268 16.2164
2 13.142 22.8682 16.675
1 11.3432 23.6173 17.1072
1 13.2672 22.8661 18.6518
2 11.3224 22.8647 18.9422
1 11.325 24.8096 19.479
1 11.3188 22.8662 21.0112
2 11.3183 24.7983 21.412
1 13.2385 24.7647 21.8104
1 11.2881 24.8929 23.3549
2 13.2492 24.6848 23.812
1 14.0001 22.8661 24.2292
1 13.2128 24.8015 25.7875
2 13.2429 22.8597 26.0757
1 11.3001 22.8639 26.6154
1 13.2289 22.8616 28.1494
2 15.277 -0.2293 -0.0142947
1 15.0519 1.73926 0.435539
1 15.1956 -0.205775 1.926
2 15.1604 1.69755 2.38365
1 17.0867 1.69338 2.78794
1 15.1671 1.71598 4.36181
2 17.0974 1.70502 4.75847
1 17.1963 -0.190833 5.18984
1 17.0878 1.7073 6.74427
2 17.1037 -0.223524 7.13756
1 15.1711 -0.223046 7.53218
1 17.0953 -0.223333 9.11217
2 15.171 -0.222673 9.51135
1 15.1712 1.70104 9.91426
1 15.1688 -0.222037 11.4909
2 15.1704 1.70045 11.8921
1 17.0943 1.70051 12.2931
1 15.1705 1.70042 13.8703
2 17.0944 1.70016 14.2712
1 17.0943 -0.223671 14.6729
1 17.0951 1.70083 16.2492
2 17.0949 -0.223798 16.6506
1 15.1761 -0.210933 17.0541
1 17.0955 -0.224255 18.6295
2 15.1685 -0.223457 19.0213
1 15.1716 1.70189 19.4268
1 15.1691 -0.22317 20.9821
2 15.171 1.69275 21.3959
1 17.0933 1.72515 21.807
1 15.1135 1.6046 23.3108
2 17.0934 1.79467 23.8894
1 17.1021 -0.211969 24.1586
1 17.8469 1.70663 25.708
2 17.0864 -0.210572 26.219
1 15.0775 -0.2331 26.631
1 17.0861 0.524174 28.1247
2 15.1533 3.6297 0.00532443
1 15.0474 5.51741 0.445703
1 15.1868 3.62501 1.99461
2 15.1593 5.55229 2.38467
1 17.0546 5.56074 2.82967
1 15.1563 5.54766 4.36686
2 17.0897 5.54377 4.76364
1 17.0839 3.6187 5.16544
1 17.0976 5.54994 6.73299
2 17.0931 3.62611 7.13682
1 15.1699 3.62756 7.53588
1 17.0942 3.62531 9.11326
2 15.1706 3.62425 9.51312
1 15.1693 5.54839 9.91391
1 15.1702 3.62471 11.4914
2 15.1701 5.54875 11.892
1 17.0938 5.54841 12.2934
1 15.1688 5.55098 13.8712
2 17.0941 5.54849 14.2711
1 17.0941 3.62442 14.672
1 17.0946 5.54781 16.2493
2 17.0945 3.62412 16.6506
1 15.1706 3.62493 17.0518
1 17.0949 3.62374 18.6285
2 15.1699 3.62469 19.0293
1 15.1814 5.54489 19.4322
1 15.1674 3.62549 21.005
2 15.169 5.55711 21.4033
1 17.0944 5.52961 21.8089
1 15.1295 5.66589 23.3459
2 17.0949 5.44885 23.7945
1 17.8506 3.65803 24.1803
1 17.097 5.54216 25.7267
2 17.0925 3.51992 26.0538
1 15.1075 3.7289 26.6303
1 17.0452 3.52027 28.0958
2 15.2386 7.4849 -0.0318877
1 15.0559 9.43142 0.430758
1 15.1928 7.47573 1.9676
2 15.1574 9.3985 2.37801
1 17.0818 9.39375 2.76676
1 15.1667 9.39922 4.35382
2 17.0869 9.40308 4.75227
1 17.0762 7.47531 5.15537
1 17.0955 9.39733 6.73217
2 17.0948 7.47381 7.13418
1 15.1698 7.47293 7.53466
1 17.0851 7.4731 9.12077
2 15.1676 7.47274 9.51328
1 15.1698 9.39754 9.91284
1 15.1687 7.47335 11.4918
2 15.1721 9.39726 11.8875
1 17.0949 9.39748 12.2898
1 15.1776 9.3967 13.8666
2 17.0957 9.39697 14.2706
1 17.0949 7.47183 14.6718
1 17.0994 9.3969 16.2478
2 17.1012 7.47351 16.6497
1 15.1893 7.47911 17.0415
1 17.0974 7.46978 18.6299
2 15.1762 7.47121 19.0276
1 15.1879 9.39857 19.4252
1 15.1664 7.47866 20.9972
2 15.1676 9.39743 21.4074
1 17.0936 9.39629 21.8095
1 15.1752 9.39899 23.3904
2 17.0954 9.39265 23.7777
1 17.0952 7.46837 24.1938
1 17.0939 9.41666 25.7112
2 17.086 7.48908 26.2195
1 15.1224 7.50413 26.5189
1 17.117 8.32367 28.1237
2 15.1645 11.3258 -0.00286338
1 15.1542 13.2415 0.400886
1 15.1762 11.3305 1.98436
2 15.1697 13.2485 2.37567
1 17.09 13.2466 2.77905
1 15.1686 13.2475 4.35375
2 17.0917 13.246 4.75507
1 17.0779 11.3277 5.16087
1 17.0936 13.2462 6.73462
2 17.0938 11.3216 7.13389
1 15.1699 11.3214 7.53451
1 17.0936 11.321 9.11199
2 15.1699 11.3216 9.5125
1 15.17 13.2451 9.91333
1 15.1694 11.3209 11.4908
2 15.1704 13.2449 11.8925
1 17.096 13.2458 12.2946
1 15.1753 13.2302 13.8673
2 17.0985 13.2457 14.2723
1 17.0949 11.3215 14.6704
1 17.0903 13.2459 16.2477
2 17.0988 11.3212 16.6483
1 15.1888 11.3152 17.0418
1 17.0947 11.3214 18.6315
2 15.1762 11.3246 19.0307
1 15.1811 13.2506 19.435
1 15.1669 11.3208 21.0071
2 15.1706 13.2458 21.4097