1639
Atoms. Timestep: 1320
2 -0.352042 -0.378802 28.695
1 -0.369777 1.56133 0.229158
1 -0.254231 -0.331838 1.88285
2 26.6398 1.52047 2.16442
1 -0.145722 1.53226 4.06829
2 1.58881 1.5544 4.84825
1 1.54067 -0.36886 5.13653
1 1.51617 1.56718 6.72354
2 1.59416 26.8023 7.09438
1 26.7956 26.7483 7.73754
1 1.72262 -0.37537 9.03299
2 -0.0309758 -0.383334 9.59595
1 26.8461 1.56025 9.8721
1 26.8643 26.8405 11.457
2 -0.337911 1.5661 11.8773
1 1.58851 1.51103 12.2656
1 -0.323381 1.57708 13.8536
2 1.56769 1.57382 14.2764
1 1.57522 -0.360493 14.6721
1 1.51825 1.5383 16.2581
2 1.78585 26.8561 16.5644
1 1.39893 -0.360082 18.4498
2 -0.324925 -0.34075 19.2861
1 -0.332435 1.58004 19.1939
1 -0.378121 26.6938 21.1333
1 1.74352 1.67564 22.0133
1 26.8337 1.52442 23.8237
2 1.57494 1.55503 23.9378
1 1.59636 26.8422 23.9506
1 1.596 1.72563 25.8853
1 26.7778 26.7376 26.8169
1 1.58574 -0.329184 28.5976
2 26.889 3.51462 28.6859
1 -0.308322 5.68474 0.528267
1 -0.253864 3.3706 1.85018
2 -0.343129 5.14967 2.37157
1 1.51345 5.53927 2.68623
1 26.8607 5.45349 4.27964
2 1.58019 5.47987 4.67063
1 1.5672 3.50512 5.02766
1 1.61843 5.46399 6.6514
2 1.5736 3.53605 6.89883
1 -0.127039 3.52966 7.73662
2 26.5549 3.49481 9.56525
1 -0.315896 5.40475 9.87516
1 -0.328763 3.50235 11.4479
2 26.8823 5.46542 11.8532
1 1.52252 5.48071 12.3107
1 -0.211686 5.45446 13.8291
2 1.66335 5.4532 14.2923
1 1.60496 3.50839 14.6726
1 1.598 5.43182 16.289
2 1.58784 3.48923 16.66
1 -0.315445 3.53936 17.0924
1 1.6464 3.48014 18.6714
2 -0.323812 3.5351 19.0696
1 -0.325437 5.50191 19.4454
1 26.8532 3.69908 21.0113
2 26.8574 5.56552 21.4537
1 1.59895 5.45534 21.8655
1 -0.332304 5.57862 23.4501
2 1.57972 5.23133 23.7595
1 1.56923 3.47614 24.2986
1 1.67446 5.77055 25.5955
2 1.66269 3.63412 26.251
1 -0.181976 3.70529 26.7524
1 1.6014 3.60121 28.2835
2 -0.340445 7.4036 28.5494
1 -0.288912 9.11504 0.526582
2 -0.2445 9.64979 2.36344
1 1.58538 9.29121 2.6926
1 26.8998 9.35645 4.28687
2 1.61259 9.25301 4.6836
1 1.6128 7.38345 5.11558
1 1.62851 9.29607 6.6946
2 1.54765 7.39065 7.08155
1 26.8151 7.38974 7.45779
1 1.48162 7.39763 9.02396
2 26.8024 7.39521 9.46507
1 26.8284 9.35277 9.88988
1 26.8358 7.39944 11.4442
2 -0.355893 9.35089 11.8671
1 1.5899 9.31941 12.2585
1 -0.353511 9.35146 13.8485
2 1.58648 9.322 14.2462
1 1.59602 7.36953 14.6665
1 1.58823 9.18851 16.1928
2 1.58888 7.32206 16.6841
1 26.8501 7.4073 17.0817
1 1.59073 7.43004 18.6568
2 -0.355496 7.42759 19.0561
1 26.8542 9.35095 19.4462
1 26.8674 7.42273 21.0403
2 26.8702 9.28567 21.4634
1 1.62428 9.39211 21.8582
1 -0.126124 9.11856 23.4296
2 1.67848 9.60833 23.7789
1 1.70305 9.03081 25.5996
2 1.30308 7.41008 26.3547
1 26.7236 7.43791 26.6961
1 1.74944 7.40316 28.1352
2 26.8502 11.3445 -0.129315
1 -0.386904 13.2795 0.228948
1 26.8415 11.4069 1.81878
2 -0.398811 13.3062 2.24168
1 1.55055 13.2612 2.37027
1 26.6786 13.2662 4.19374
1 1.57433 11.1285 5.13362
1 1.58134 13.2534 6.97764
2 1.58961 11.2866 7.05933
1 -0.236947 11.2865 7.55802
1 1.59283 11.2546 9.11731
2 -0.348182 11.2977 9.5048
1 -0.368024 13.2477 9.89234
1 26.8657 11.2973 11.4817
2 -0.352521 13.2447 11.8737
1 1.58489 13.241 12.2685
1 -0.351377 13.2461 13.8568
2 1.57775 13.1945 14.2515
1 1.58627 11.2727 14.3737
1 1.43577 13.447 16.2162
1 26.6958 11.2726 17.1751
1 1.57969 11.3237 18.9934
2 -0.369214 11.3276 19.1148
1 -0.324479 13.3244 19.3383
1 -0.298891 11.1645 21.0625
1 -0.241045 13.2955 23.614
2 1.61056 13.2026 24.1061
1 1.57689 11.3489 24.371
1 1.57539 13.2267 26.0063
2 1.58578 11.3043 26.3168
1 -0.330518 11.2001 26.691
1 1.56246 11.2231 28.272
2 26.8211 15.2104 28.6698
1 26.8767 17.1591 0.288812
1 -0.367882 15.2166 1.85858
2 -0.344917 17.1523 2.26828
1 1.61986 17.1984 2.66366
1 -0.338148 17.1776 4.24193
2 1.59793 17.2649 4.6597
1 1.56033 15.3808 5.12185
1 1.56909 17.1942 6.66793
2 1.57115 15.2165 7.06891
1 -0.39587 15.2076 7.46699
1 1.4233 15.215 9.0157
2 26.7575 15.1946 9.48963
1 -0.350113 17.1426 9.85884
1 -0.352974 15.1932 11.466
2 -0.316154 17.1383 11.8293
1 1.68284 17.1243 12.0122
1 -0.331008 17.1316 13.7055
1 1.68758 15.1173 14.6763
1 1.53013 17.1299 16.5279
2 1.79579 15.2729 16.5757
1 1.3818 15.1801 18.4607
2 26.8369 15.1929 19.114
1 26.8409 17.0653 19.247
1 1.70462 17.0176 21.5531
1 26.682 17.1093 23.6778
1 1.60385 15.05 24.3857
1 1.58345 17.1299 26.2106
2 1.51814 15.1881 26.3273
1 -0.380264 15.2048 26.6805
1 1.53731 15.175 28.3171
2 -0.235945 19.0939 -0.113161
1 -0.319398 21.0259 0.299363
1 -0.32341 19.1028 1.87837
2 -0.384718 21.0369 2.30982
1 1.55484 21.0181 2.9383
1 26.6607 21.1217 4.35236
2 1.23811 21.0407 4.81637
1 1.63644 19.1773 5.09482
1 1.49652 21.0628 6.71172
2 1.58137 19.0979 7.09548
1 -0.371576 19.1099 7.47711
1 1.56906 19.1146 9.0686
2 26.8331 19.0973 9.46673
1 26.7969 21.1031 9.86321
1 -0.337704 19.0961 11.4412
2 -0.343525 21.0302 11.8353
1 1.4784 21.047 12.3347
1 26.8784 21.0331 13.8925
2 1.59393 21.101 14.2899
1 1.67162 19.2109 14.7409
1 1.57191 21.0592 16.2904
2 1.65171 19.0953 16.6891
1 -0.204256 19.0894 17.1506
1 1.61576 19.075 18.7122
2 26.8624 19.055 19.0855
1 26.842 21.0442 19.4554
1 26.8596 19.2317 21.0221
2 -0.35761 21.0872 21.4864
1 1.5871 20.9936 21.877
1 26.8237 21.067 23.4737
2 1.58736 21.0792 23.8532
1 1.5983 19.2013 24.3135
1 1.58733 20.9281 25.8348
2 1.60914 19.0408 26.2805
1 -0.292404 19.0609 26.682
1 1.69605 19.1739 28.3075
2 -0.33276 22.956 28.6948
1 -0.289538 24.8851 0.252431
1 -0.318993 22.9517 1.87769
2 -0.202698 24.907 2.21175
1 1.65949 24.8558 2.68089
1 26.873 24.8805 4.23631
2 1.60035 24.8818 4.67581
1 1.61019 22.9182 5.11882
1 1.53816 24.8899 6.65721
2 1.61995 22.9981 7.12644
1 26.8167 23.0398 7.72651
1 1.73475 23.0529 9.10154
2 -0.0378095 23.0207 9.59886
1 26.7472 24.914 9.90885
1 26.8985 22.991 11.4733
2 -0.366057 24.9212 11.9002
1 1.61872 24.9654 12.2661
1 -0.341312 24.9094 13.8578
2 1.56698 24.9215 14.2707
1 1.59677 23.0079 14.6873
1 1.53577 24.9627 16.2722
2 1.58061 22.9885 16.6761
1 26.8518 23.0038 17.0896
1 1.58269 22.9276 18.6565
2 26.8455 22.9676 19.0619
1 -0.330676 24.9004 19.4913
1 -0.361608 22.9482 21.0497
2 26.7787 24.8074 21.4798
1 1.45773 24.9029 21.9008
1 26.7913 24.8644 23.4616
2 1.5793 24.9066 23.8455
1 1.59026 22.9757 23.9289
1 1.55716 24.892 25.7352
1 26.6191 23.0722 26.7626
1 1.67648 22.8523 28.616
2 3.5263 -0.294552 28.7237
1 3.53657 1.61456 0.287402
1 3.4828 -0.26169 1.9329
2 3.81472 1.6149 2.18947
1 5.57827 1.59067 2.73105
1 3.29716 1.57931 4.02842
2 5.52927 1.57594 4.67044
1 5.46624 -0.334962 5.05698
1 5.41975 1.60097 6.64196
2 5.50398 26.8449 7.02057
1 3.55042 26.8322 7.3497
1 5.44713 -0.33687 9.00637
2 3.58481 -0.312204 9.24515
1 3.50998 1.41058 10.0949
2 3.41851 1.80702 11.9856
1 5.23857 1.51008 12.3199
1 3.47886 1.58718 13.9018
2 5.46483 1.58783 14.2666
1 5.45451 -0.356897 14.3658
1 5.45384 1.74819 16.2042
1 3.51719 -0.300629 17.1676
1 5.46309 -0.317951 19.0044
2 3.55278 26.5688 18.986
1 3.43866 0.259003 20.5881
2 3.62727 1.73431 21.7154
1 5.5131 1.62568 21.9298
1 3.57584 1.60482 23.5907
2 5.51982 1.6031 23.9034
1 5.4946 26.848 23.9582
1 5.46915 1.7654 25.8178
1 3.54466 -0.353635 26.8395
1 5.48909 -0.32524 28.626
2 3.51016 3.556 28.6868
1 3.52086 5.4869 0.342395
1 3.43802 3.48819 1.87767
2 3.40776 5.44349 2.30248
1 5.29227 5.40519 2.72342
1 3.4792 5.43353 4.28518
2 5.44789 5.424 4.64706
1 5.4092 3.48415 5.06947
1 5.40241 5.41578 6.63252
2 5.38964 3.51522 7.06511
1 3.29139 3.45272 7.72822
1 5.55052 3.50973 9.02545
2 3.80625 3.57322 9.54024
1 3.54308 5.49003 9.55172
1 3.46649 3.52544 11.352
1 5.62859 5.49904 12.3493
1 3.57023 5.46768 14.1935
2 5.50774 5.48452 14.2926
1 5.47711 3.5577 14.6406
1 5.49295 5.49539 16.2912
2 5.47279 3.60599 16.6661
1 3.52328 3.52998 17.0817
1 5.42222 3.49033 18.6566
2 3.53061 3.82474 18.9788
1 3.53849 5.59888 19.4984
1 3.54217 3.41245 20.853
2 3.53076 5.52122 21.446
1 5.44379 5.43479 21.8786
1 3.48062 5.51397 23.4234
2 5.43881 5.49401 23.8497
1 5.45107 3.59136 24.2641
1 5.40625 5.55629 25.8481
2 5.37953 3.6498 26.2748
1 3.51013 3.61353 26.6954
1 5.43031 3.52903 28.3112
2 3.52428 7.41222 0.106838
1 3.52986 9.33577 0.332819
1 3.52968 7.4082 1.97622
2 3.52567 9.36351 2.31034
1 5.47171 9.36356 2.65758
1 3.53505 9.36601 4.27762
2 5.47345 9.35266 4.62119
1 5.46005 7.3616 4.97121
1 5.50195 9.17272 6.54775
2 5.49922 7.29986 6.86061
1 3.7817 7.42048 7.71287
2 3.24656 7.39864 9.5484
1 3.58354 9.30415 9.8615
1 3.54824 7.55066 11.4084
2 3.54172 9.41632 11.9026
1 5.47987 9.36108 12.29
1 3.52935 9.34793 13.8685
2 5.47931 9.34375 14.2635
1 5.48958 7.4152 14.6776
1 5.48038 9.33034 16.2522
2 5.48215 7.41836 16.6755
1 3.53835 7.40876 17.0982
1 5.50149 7.46931 18.669
2 3.53999 7.48609 19.0776
1 3.53876 9.38937 19.4812
1 3.54837 7.46332 21.0862
2 3.55296 9.39292 21.4467
1 5.49066 9.43714 21.8528
1 3.50899 9.29533 23.4263
2 5.37153 9.36239 23.8763
1 5.47762 7.42446 24.2588
1 5.38275 9.30407 25.8591
2 5.73104 7.4321 26.172
1 5.21448 7.41443 28.0123
2 3.50637 11.281 -0.104055
1 3.52123 13.2222 0.2749
1 3.49187 11.2947 1.88158
2 3.46704 13.2273 2.27516
1 5.36333 13.2536 2.70123
1 3.64953 13.2484 4.24366
2 5.55487 13.2676 4.67106
1 5.50648 11.3078 4.75225
1 5.5054 13.4343 6.61504
1 3.42065 11.2817 7.54161
1 5.48865 11.2862 9.38354
2 3.53532 11.1981 9.48123
1 3.52573 13.0831 9.94234
1 3.51195 11.2758 11.4896
2 3.5258 13.2113 11.8984
1 5.47406 13.2155 12.2681
1 3.52596 13.2088 13.8937
2 5.4672 13.2533 14.2425
1 5.47204 11.2629 14.6392
1 5.49278 13.0907 16.1733
2 5.53391 11.2185 16.6285
1 3.67247 11.2947 17.1421
1 5.51724 11.2996 18.6372
2 3.53175 11.31 19.077
1 3.51646 13.2519 19.4661
1 3.50603 11.3533 21.0756
2 3.82892 13.2373 21.363
1 5.60526 13.1403 21.8734
1 3.3473 13.2278 23.235
2 5.37858 13.1372 23.8471
1 5.37932 11.2812 24.3051
1 5.44742 13.2502 25.8761
2 5.39752 11.2819 26.2889
1 3.49141 11.2653 26.6906
1 5.42275 11.2889 28.2882
2 3.45393 15.1237 -0.115956
1 3.54616 17.0153 0.326651
1 3.52496 15.1458 1.89493
2 3.53844 17.0745 2.27006
1 5.44379 17.1628 2.66185
1 3.52869 17.1843 4.22978
2 5.46889 17.1831 4.64683
1 5.49505 15.246 5.02993
1 5.48718 17.1883 6.61808
2 5.5029 15.3063 7.04693
1 3.53071 15.228 7.14914
1 5.65267 15.1963 8.97772
1 3.55603 17.2437 9.75367
1 3.53258 15.1513 11.7728
2 3.54445 17.0273 11.613
1 5.26382 17.1465 12.4658
2 5.7161 17.1426 14.3318
1 5.39256 15.241 14.3776
1 5.46427 17.2808 16.1996
1 3.5227 15.1849 17.1897
1 5.4999 15.168 19.0618
2 3.53597 15.1814 19.0925
1 3.52005 17.0938 19.4477
1 3.47652 15.1227 21.0693
2 3.60663 17.0964 21.4293
1 5.56587 17.2012 21.5524
1 3.59228 17.1159 23.3193
1 5.41848 14.9984 24.3004
1 5.53591 17.0667 26.1899
2 5.17576 15.1784 26.1731
1 3.39408 15.185 26.6689
1 5.34376 15.1251 28.0796
2 3.57527 18.7698 28.5608
1 3.61109 19.3533 1.59446
2 3.11564 21.0176 2.06627
2 5.75833 21.0199 5.05265
1 5.38484 19.1961 5.05526
1 5.48882 21.0212 6.84972
2 5.45665 19.0662 7.10172
1 3.51338 19.0949 7.44647
1 5.45484 19.0618 9.06352
2 3.5191 19.1468 9.4186
1 3.53974 21.0354 9.52916
1 3.53859 18.9324 11.3744
1 5.63439 21.0103 12.3438
1 3.53742 21.0546 14.1768
2 5.48685 21.0014 14.2762
1 5.40742 19.0577 14.6396
1 5.50058 21.0127 16.2586
2 5.44691 19.1458 16.6531
1 3.53583 19.0659 17.0844
1 5.49842 19.0866 18.619
2 3.5455 19.0376 19.0739
1 3.54061 20.9497 19.4652
1 3.53782 19.023 21.068
2 3.5488 20.8966 21.4881
1 5.54582 20.9494 21.883
1 3.54848 21.011 23.4474
2 5.48361 21.0676 23.856
1 5.48082 19.2044 24.3363
1 5.48092 21.0115 25.8623
2 5.49696 19.0612 26.2715
1 3.54985 19.0269 26.6573
1 5.43397 19.1585 28.2532
2 3.56037 23.2583 28.5994
1 3.53583 25.0185 0.338602
1 3.64507 22.6772 1.62837
2 3.5471 24.9934 2.28151
1 5.4352 24.9132 2.69592
1 3.52786 24.8822 4.26018
2 5.44865 24.8903 4.67378
1 5.39311 22.8469 5.06246
1 5.47091 24.895 6.62082
2 5.39126 22.9911 7.08633
1 3.52848 23.0219 7.45808
1 5.44354 23.026 9.09571
2 3.58987 22.9543 9.45275
1 3.55673 25.2119 10.1519
1 3.53122 22.9922 11.3541
2 3.51375 24.7113 11.9902
1 5.40038 24.9239 12.2908
1 3.50879 24.9169 13.8906
2 5.46124 24.8996 14.2796
1 5.47479 22.9316 14.6435
1 5.48323 24.7312 16.2133
2 5.48719 22.8749 16.6864
1 3.53318 22.9371 17.0706
1 5.51124 22.8848 18.6676
2 3.53679 22.8558 19.0505
1 3.51417 24.7615 19.1892
1 3.56702 22.7518 21.0122
1 5.63971 24.9164 21.9175
1 3.54923 24.9156 23.7845
2 5.50492 24.898 23.8674
1 5.51262 22.9466 24.2314
1 5.51095 24.7457 25.8156
2 5.55632 22.8737 26.2547
1 3.68174 22.9639 26.7366
1 5.44599 22.9131 28.2767
2 7.45293 26.8367 28.6811
1 7.44813 1.55319 0.243085
1 7.43415 26.8418 1.86876
2 7.4621 1.50125 2.26805
1 9.3741 1.56146 2.6451
1 7.48282 1.57076 4.27872
2 9.33045 1.92861 4.56864
1 9.34645 1.15661 6.26728
2 9.39419 26.8722 7.36522
1 7.41073 -0.367606 7.51423
1 9.18985 -0.367497 9.19251
2 7.29621 -0.360932 9.5066
1 7.41333 1.60098 9.54629
1 7.34697 26.6882 11.4246
1 9.53196 1.62009 12.3731
1 7.42016 1.59419 14.1811
2 9.39008 1.58299 14.3033
1 9.3701 26.8472 14.6768
1 9.39466 1.57825 16.286
2 9.45304 -0.370155 16.6516
1 7.59074 -0.339233 17.1662
1 9.44771 26.7944 18.6859
2 7.43786 26.859 19.093
1 7.43822 1.58039 19.479
1 7.48467 26.846 21.075
2 7.43984 1.58118 21.4799
1 9.37921 1.55611 21.8682
1 7.4463 1.5833 23.4846
2 9.38129 1.54021 23.8528
1 9.39249 26.7798 24.2258
1 9.42701 1.38628 25.7941
2 9.47699 26.7237 26.253
1 7.61175 -0.372545 26.7582
1 9.4754 26.7685 28.2882
2 7.40347 3.52518 28.6735
1 7.35597 5.49057 -0.0677258
1 7.41923 3.37062 1.81983
1 9.53481 5.52302 2.59891
1 7.40921 5.48153 4.57839
2 9.34647 5.56649 4.44485
1 9.37398 3.74938 4.8911
1 7.31801 3.60431 7.45834
1 9.33882 3.6033 9.33288
2 7.42836 3.56387 9.44745
1 7.36252 5.57097 9.85942
1 7.40005 3.70368 11.3897
2 7.48179 5.56491 11.8827
1 9.35663 5.50421 12.2779
1 7.45466 5.48532 13.897
2 9.36271 5.47661 14.2879
1 9.38061 3.52271 14.6923
1 9.36205 5.47753 16.2702
2 9.35901 3.52797 16.6706
1 7.40638 3.53208 17.0883
1 9.34763 3.54999 18.6465
2 7.39877 3.5091 19.0625
1 7.38965 5.43761 19.4515
1 7.42456 3.51453 21.0495
2 7.4036 5.41814 21.4704
1 9.34772 5.44959 21.8789
1 7.40094 5.47674 23.4643
2 9.3542 5.40969 23.8578
1 9.37495 3.48837 23.9646
1 9.36109 5.60524 25.8128
1 7.24211 3.55098 26.7325
1 9.36325 3.53669 28.5921
2 7.45651 7.41475 -0.158774
1 7.39985 9.32141 0.214086
1 7.36028 7.51799 1.77365
2 7.4015 9.34006 2.29791
1 9.32712 9.31176 2.67927
1 7.41989 9.31779 4.2738
2 9.30943 9.37749 4.67425
1 9.3071 7.21985 5.34386
1 9.34454 9.4375 6.63363
2 9.36201 7.67728 7.17397
1 7.26736 7.38522 7.68575
1 9.46763 7.42707 9.03646
2 7.69939 7.43342 9.56781
1 7.38563 9.31727 9.86489
1 7.4314 7.45441 11.4644
2 7.4133 9.37705 11.8806
1 9.3647 9.34957 12.2789
1 7.42624 9.35689 13.8601
2 9.36746 9.36067 14.2659
1 9.3637 7.42723 14.6965
1 9.3932 9.36868 16.2535
2 9.36141 7.42507 16.6798
1 7.43073 7.44532 17.1137
1 9.34925 7.47523 18.6859
2 7.41919 7.38765 19.0833
1 7.40336 9.57522 19.7081
1 7.42658 7.3177 21.0359
2 7.436 9.09063 21.559
1 9.34844 9.52375 21.579
1 7.25125 9.37924 23.4182
1 9.34702 7.32061 24.2869
1 9.45803 9.45922 26.1748
2 9.3494 7.52898 26.2565
1 7.50094 7.46998 26.6881
1 9.37465 7.4194 28.3377
2 7.37353 11.1947 28.6204
1 7.47426 13.0579 -0.0332977
1 7.47191 11.1494 1.75959
1 9.55372 13.2836 2.79126
1 7.48119 13.2928 4.59475
2 9.42184 13.2465 4.71371
1 9.40053 11.3065 5.01963
1 9.40702 13.1473 6.66118
2 9.46011 11.2927 7.05871
1 7.57349 11.3047 7.55725
1 9.40434 11.2653 9.07447
2 7.43655 11.2873 9.49277
1 7.45055 13.2496 9.87946
1 7.44331 11.2923 11.4608
2 7.41148 13.2413 11.8668
1 9.3396 13.2475 12.2744
1 7.40653 13.2648 13.857
2 9.36176 13.25 14.2578
1 9.35767 11.3084 14.6426
1 9.37023 13.2474 16.2536
2 9.38571 11.3129 16.5813
1 7.43638 11.2862 16.9687
1 9.3764 11.2601 18.5287
2 7.44283 11.2728 18.8463
1 7.42241 12.9766 19.6844
2 7.49312 13.4281 21.5618
1 9.35434 13.0112 21.6131
1 7.29788 13.2062 23.4534
1 9.37105 11.3308 24.4049
1 9.36353 13.2829 26.172
2 9.07046 11.3559 26.2256
1 7.28986 11.2613 26.6811
1 9.59942 11.3107 28.0691
1 7.37752 17.2874 0.28218
1 7.41347 15.3123 2.09601
2 7.37995 17.1725 2.23859
1 9.35482 17.1237 2.56063
1 7.42028 17.1499 4.20036
2 9.37509 16.9929 4.42018
1 9.38428 15.3271 5.29038
2 9.39029 14.9178 7.16671
1 7.51892 15.2753 7.46744
1 9.38569 15.187 9.0737
2 7.50262 15.2005 9.50025
1 7.38066 17.1279 9.91129
1 7.38866 15.1999 11.4731
2 7.43251 17.1339 11.8749
1 9.35822 17.1265 12.2269
1 7.48661 17.1295 13.8243
2 9.33272 17.1219 14.283
1 9.35573 15.1786 14.6784
1 9.3848 17.121 16.2723
2 9.43769 15.177 16.6655
1 7.5401 15.1954 17.1686
1 9.25193 15.1871 18.6653
2 7.38537 15.1865 19.1043
1 7.46903 17.4145 19.6749
1 7.51045 15.1885 21.0223
2 7.4742 16.9555 21.5264
1 9.40053 17.3317 21.8887
1 7.5893 17.1558 23.3975
2 9.45516 17.2532 23.9019
1 9.41117 15.3655 24.3015
1 9.33528 17.1141 25.8983
2 9.68856 15.188 26.1693
1 9.51486 15.2108 28.076
2 7.39552 19.1637 -0.156766
1 7.40113 21.0648 -0.01792
1 7.32338 19.0348 1.81902
1 9.53846 21.0668 2.32598
1 7.33994 20.9678 4.24052
1 9.39444 18.4761 5.52886
1 9.36329 21.0039 6.88013
2 9.42982 19.2323 7.2201
1 7.42353 19.0555 7.45943
1 9.20006 19.0248 9.0542
2 7.32616 19.0627 9.49059
1 7.42194 21.0044 9.86899
1 7.37483 19.0585 11.4708
2 7.49672 20.9997 11.8556
1 9.37486 20.9975 12.2707
1 7.45467 21.0009 13.8871
2 9.36781 21.0253 14.2818
1 9.36644 19.0741 14.663
1 9.37831 21.043 16.2813
2 9.35891 19.0804 16.5922
1 7.41017 19.0713 16.9568
1 9.36558 19.1506 18.5426
2 7.43475 19.1119 18.8335
1 7.45101 20.7935 19.729
2 7.4594 21.2961 21.5678
1 9.4051 20.9578 21.9081
1 7.44514 21.0181 23.4507
2 9.3778 21.0079 23.9209
1 9.39425 19.1125 24.3245
1 9.38585 21.0277 25.9007
2 9.36396 19.0666 26.3008
1 7.41899 19.0783 26.6681
1 9.35157 19.0808 28.2732
2 7.34271 22.9941 -0.135257
1 7.38749 24.926 0.256202
1 7.31318 23.1029 1.81719
2 7.33629 24.9741 2.27732
1 9.23323 24.9122 2.69902
1 7.38652 24.9194 4.29108
2 9.3249 24.7351 4.55771
1 9.39784 22.9634 4.84654
1 9.38306 25.4003 6.25541
1 7.25849 22.9829 7.52613
1 9.35464 22.9602 9.39076
2 7.39647 22.9513 9.48138
1 7.37719 24.8691 9.86937
1 7.37669 22.9295 11.4736
2 7.30628 24.8139 11.8844
1 9.18851 24.8857 12.3649
1 7.36989 24.8852 13.8907
2 9.36999 24.9107 14.2891
1 9.35545 22.9744 14.6652
1 9.34587 24.9083 16.2663
2 9.35027 22.9907 16.6366
1 7.45557 22.926 17.1402
1 9.48523 22.9426 18.6863
2 7.45696 23.0037 19.078
1 7.43457 24.9353 19.4432
1 7.46644 23.0561 21.0148
2 7.55156 24.9407 21.4549
1 9.50551 24.8214 21.8684
1 7.48125 24.8959 23.4482
2 9.36726 24.8475 23.905
1 9.36717 22.9234 24.2502
1 9.37221 24.8519 25.8662
2 9.38855 22.9491 26.2671
1 7.42564 22.9578 26.661
1 9.2491 23.058 28.2215
2 11.3374 -0.114376 28.5915
1 11.3568 1.6562 0.346625
1 11.418 26.5476 1.62065
2 11.323 1.61269 2.27823
1 13.4039 1.55403 2.90308
1 11.1714 1.5254 4.213
2 12.9351 1.58872 4.77723
1 13.3099 -0.271069 5.12066
1 13.219 1.62213 6.68069
2 13.2676 26.9149 7.11283
1 11.3286 26.8797 7.2359
1 13.4783 -0.220585 9.04068
1 11.2858 1.77281 9.92446
1 11.3507 -0.201806 11.7037
2 11.3922 1.67288 11.8691
1 13.2814 1.57605 12.3244
1 11.3764 1.54068 13.9035
2 13.2276 1.86383 14.2244
1 13.219 1.36196 16.0599
2 13.2631 -0.365131 16.8773
1 11.3428 26.8489 17.1181
1 13.1982 26.8005 18.7613
2 11.2984 -0.0406338 19.0014
1 11.303 1.73587 19.4652
1 11.2911 26.8811 20.888
2 11.3076 1.62585 21.4445
1 13.2447 1.54064 21.8882
1 11.3294 1.50225 23.4397
2 13.2453 1.6022 23.8674
1 13.2663 26.6304 24.4793
1 13.2467 1.6487 25.8233
2 13.261 -0.120675 26.3402
1 11.3799 26.7818 26.6854
1 13.22 26.7897 28.2493
2 11.3226 3.5644 28.7142
1 11.3393 5.47561 0.286438
1 11.3684 3.53544 1.93106
2 11.4215 5.48839 2.24404
1 13.2783 5.47656 2.7017
1 11.3336 5.51254 4.25503
2 13.2778 5.45231 4.67874
1 13.269 3.47242 5.05932
1 13.255 5.45825 6.64472
2 13.3099 3.54215 7.0579
1 11.3888 3.60734 7.48382
1 13.1509 3.47455 9.0083
2 11.2595 3.62554 9.46304
1 11.322 5.50303 9.87515
1 11.3298 3.5859 11.5038
2 11.237 5.50012 11.8652
1 13.1033 5.48025 12.3547
1 11.2654 5.49506 13.8867
2 13.228 5.51501 14.2957
1 13.2381 3.63408 14.7202
1 13.2079 5.50114 16.3096
2 13.1972 3.56846 16.6743
1 11.3061 3.50844 17.071
1 13.2216 3.52874 18.6657
2 11.2876 3.59308 19.0614
1 11.2963 5.4675 19.4541
1 11.3046 3.55201 21.091
2 11.3002 5.43658 21.4806
1 13.2572 5.44726 21.8579
1 11.3028 5.4682 23.4629
2 13.2534 5.46877 23.8332
1 13.2516 3.52061 24.2198
1 13.2677 5.33329 25.7732
2 13.3326 3.49706 26.2703
1 11.4624 3.52165 26.7698
1 13.2894 3.53143 28.2862
2 11.3035 7.42944 28.7115
1 11.3481 9.38609 0.363339
1 11.3502 7.43907 1.89892
2 11.2774 9.34298 2.32638
1 13.4187 9.38953 2.92094
1 11.1874 9.27756 4.27049
2 12.9687 9.29146 4.78645
1 13.3247 7.43034 5.08397
1 13.2191 9.30958 6.70109
2 13.259 7.37934 7.07313
1 11.2936 7.37728 7.4391
1 13.256 7.42227 9.04185
2 11.3633 7.42474 9.46935
1 11.3286 9.36215 9.87619
1 11.3128 7.43379 11.462
2 11.3055 9.36623 11.8719
1 13.2486 9.4095 12.3098
1 11.3156 9.38534 13.8623
2 13.2465 9.34153 14.2802
1 13.244 7.40321 14.6516
1 13.2521 9.24657 16.2399
2 13.2385 7.38003 16.6832
1 11.2874 7.43662 17.1242
1 13.2349 7.43419 18.6712
2 11.2978 7.40704 19.0935
1 11.3153 9.47476 19.6517
1 11.2682 7.3152 21.0523
2 11.2591 9.09472 21.5337
1 13.176 9.42452 21.8098
1 11.3965 9.38947 23.3897
2 13.2233 9.37269 23.8867
1 13.2367 7.425 23.9475
1 13.1258 9.57797 25.8286
1 11.1752 7.4251 26.7661
1 13.2455 7.39055 28.5991
2 11.3257 11.3089 0.105821
1 11.3283 13.2356 0.331829
1 11.3509 11.292 1.9921
2 11.4084 13.2723 2.29801
1 13.2921 13.2439 2.72983
1 11.3948 13.3281 4.31485
2 13.2536 12.9378 4.62183
1 13.3146 11.1527 5.1248
1 13.2245 13.4662 6.44731
2 13.2747 11.2653 7.08311
1 11.3666 11.3133 7.46422
1 13.2574 11.3387 9.04827
2 11.3233 11.2922 9.47181
1 11.2759 13.2209 9.85578
1 11.3038 11.2967 11.4591
2 11.2712 13.2325 11.8261
1 13.2489 13.2337 12.1537
1 11.3133 13.2118 13.7878
2 13.249 13.1042 14.0117
1 13.2759 11.4255 14.8571
2 13.2895 11.0242 16.7117
1 11.3743 11.3454 16.9525
1 13.2453 11.2607 18.5929
2 11.2976 11.1517 18.8074
1 11.3308 12.6432 19.8911
2 11.261 13.3868 21.5845
1 13.2036 13.1752 21.8744
1 11.4247 13.1892 23.4485
2 13.3001 13.208 23.8812
1 13.255 11.321 24.2685
1 13.1998 13.2193 25.8834
2 13.4561 11.3912 26.1821
1 13.0635 11.3368 28.0678
2 11.407 15.1659 -0.125323
1 11.3401 17.0926 0.257953
1 11.3248 15.1837 1.85523
2 11.3302 17.1074 2.21206
1 13.2908 17.0743 2.62467
1 11.3445 17.034 4.16961
2 13.2393 17.2856 4.51524
1 13.2383 16.9006 6.38987
2 13.2277 15.1966 7.26574
1 11.2833 15.2304 7.51987
1 13.2448 15.1791 9.14079
2 11.3045 15.1212 9.50547
1 11.3584 17.003 9.90814
1 11.2786 15.1564 11.4825
2 11.3022 17.0989 11.8613
1 13.2625 17.1145 11.9698
1 11.1781 17.0679 13.8114
1 13.2829 14.6105 15.0943
1 13.2393 17.265 16.582
2 13.2564 15.4466 16.7562
1 11.3594 15.1279 16.8127
1 13.3325 15.1651 18.6327
1 11.3089 17.7591 19.9198
1 11.2507 15.1912 21.3654
2 11.2909 16.9901 21.5911
1 13.217 17.2176 21.9006
1 11.3714 17.2366 23.4855
2 13.2715 16.8828 23.7875
1 13.2556 15.1029 24.2841
1 13.2945 17.3496 25.6317
2 13.3108 15.1437 26.2428
1 11.4753 15.2414 26.6688
1 13.3438 15.1427 28.2744
2 11.2864 18.9869 28.6993
1 11.3196 20.8703 0.285891
1 11.3151 19.0323 1.89256
2 11.3989 21.071 2.21532
1 13.2789 21.0431 2.28703
1 11.3502 20.97 4.1099
1 13.2845 19.0404 5.03805
1 13.2253 20.982 7.02872
2 13.2388 19.0668 6.87908
1 11.3807 18.9743 7.27387
1 11.3644 21.0574 9.89465
1 11.328 19.03 11.7657
2 11.2926 20.9358 11.8739
1 13.2098 21.0037 12.2461
1 11.2826 21.0261 13.8695
2 13.172 21.0691 14.2512
1 13.2484 19.24 14.7366
1 13.2249 21.0672 16.3513
2 13.2763 19.1597 16.6663
1 11.3025 19.1574 16.9683
1 13.2333 19.1742 18.6285
2 11.2948 19.2308 18.8239
1 11.2978 20.9094 19.7514
2 11.2777 20.9545 21.6243
1 13.1535 21.0878 21.896
1 11.3609 21.0214 23.4915
2 13.2724 21.3969 23.8095
1 13.2582 20.7718 25.6272
2 13.2609 19.0468 26.4647
1 11.3185 19.0412 26.7262
1 13.2573 19.0873 28.3395
1 11.4214 23.137 2.09626
2 11.0207 24.9157 2.37995
1 11.4214 25.0093 4.18269
2 13.2182 25.0424 4.92941
1 13.2118 23.1602 5.20801
1 13.2811 24.9727 6.80994
2 13.2468 22.9481 7.11945
1 11.4091 22.9934 7.53981
1 13.2568 22.9475 9.12983
2 11.3141 22.9375 9.4865
1 11.3278 24.8019 9.61986
1 11.3201 22.8164 11.4528
1 13.4412 24.9607 12.3245
1 11.3653 24.9914 14.159
2 13.2676 24.6624 14.1804
1 13.2581 22.9052 14.6967
1 13.2934 25.1224 16.0447
2 13.2549 23.0111 16.6349
1 11.3092 22.9631 16.9304
1 13.1044 23.0145 18.6493
2 11.3071 22.4321 18.6885
2 11.2964 25.3412 21.8347
1 13.1044 24.8148 21.8137
1 11.333 24.9104 23.6062
2 13.2889 24.8998 23.699
1 13.3073 23.1719 24.496
2 13.2775 22.5566 26.3147
1 11.3859 22.9772 26.389
1 13.3895 23.0196 28.1489
2 15.1684 26.8074 28.6363
1 15.1641 1.55365 0.183672
1 15.131 26.82 1.81755
2 15.1438 1.55912 2.06618
1 16.8657 1.5873 2.95833
2 17.463 1.24193 4.66659
1 17.0349 26.7431 5.07724
1 17.1061 1.8303 6.37369
2 17.0536 -0.258706 7.03839
1 15.2161 -0.310268 7.45578
1 17.0769 -0.232782 9.06086
2 15.2732 26.5502 9.37681
1 15.2186 -0.243516 11.2466
2 15.1909 1.42849 12.1081
1 17.0779 1.55104 12.318
1 15.1206 1.50042 13.9883
2 17.06 1.56912 14.3087
1 17.1133 -0.357126 14.7063
1 17.1787 1.63315 16.2716
2 17.0448 -0.349441 16.6777
1 15.1659 -0.327262 17.1513
1 17.1091 26.8086 18.7161
2 15.1879 26.8365 19.1225
1 15.203 1.5937 19.4843
1 15.1866 26.816 21.0823
2 15.1822 1.57579 21.472
1 17.1063 1.57874 21.8896
1 15.1622 1.55477 23.4637
2 17.1172 1.57797 23.8636
1 17.1316 26.8634 24.2322
1 17.098 1.56977 25.8556
2 17.1042 -0.323993 26.2672
1 15.1353 26.7838 26.6745
1 17.1079 26.8226 28.2698
2 15.2038 3.53153 -0.148016
1 15.1896 5.45686 0.279844
1 15.1716 3.48687 1.82013
2 15.1276 5.44413 2.24454
1 16.9819 5.46211 2.72774
1 15.2149 5.37495 4.28463
2 17.1173 5.68449 4.59806
1 17.1273 5.24892 6.46904
2 17.1484 3.52991 7.28172
1 15.2301 3.5007 7.21103
1 17.308 3.50472 9.13747
1 15.1903 5.64359 9.62497
1 15.1816 3.17005 11.4878
1 17.2788 5.58576 12.3381
1 15.194 5.46626 14.1936
2 17.1314 5.49495 14.2953
1 17.0834 3.5238 14.6598
1 17.185 5.42419 16.2718
2 16.8526 3.53098 16.569
1 15.0808 3.48603 17.1105
1 17.3897 3.58654 18.4077
2 15.1471 3.52689 19.0674
1 15.217 5.45183 19.4695
1 15.231 3.52909 21.0348
2 15.2081 5.47731 21.4604
1 17.1808 5.51882 21.8802
1 15.2017 5.44891 23.4355
2 17.1296 5.37858 23.8641
1 17.1339 3.49268 24.2636
1 17.1487 5.40245 25.8787
2 17.1359 3.4964 26.276
1 15.2187 3.53359 26.6783
1 17.131 3.51153 28.2807
2 15.2075 7.34626 28.6629
1 15.1413 9.25728 0.165786
1 15.2001 7.4126 1.87563
2 15.0432 9.3616 2.01197
1 16.7537 9.51032 2.6357
1 17.0017 7.43034 5.15953
1 17.0912 9.38607 7.0079
2 17.1048 7.43843 7.05965
1 15.1979 7.39566 7.45651
1 17.1466 7.37681 9.01261
2 15.2 7.52312 9.43401
1 15.1898 9.42565 9.85567
1 15.1796 7.61605 11.3927
2 15.2066 9.45876 11.8911
1 17.1736 9.3295 12.3008
1 15.1836 9.40657 13.8655
2 17.1235 9.35402 14.2898
1 17.1077 7.42156 14.6901
1 17.0958 9.36388 16.2645
2 17.1172 7.40276 16.6438
1 15.1894 7.37928 17.0861
1 17.1423 7.39853 18.6155
2 15.1934 7.40901 19.0629
1 15.1697 9.35639 19.4451
1 15.1669 7.41201 21.039
2 15.1758 9.35143 21.4285
1 17.1652 9.25849 21.5563
1 15.0444 9.36849 23.3659
1 17.1519 7.22823 24.3374
1 17.1554 9.19278 26.1159
2 17.2281 7.30952 26.2889
1 15.3504 7.36706 26.732
1 17.1761 7.39943 28.3023
2 15.2086 11.0469 28.5765
1 15.0885 11.5014 1.59944
2 15.2195 13.2335 2.46079
1 17.1469 13.2046 2.74061
1 15.1477 13.3213 4.34295
2 17.1242 13.3253 4.71744
1 17.0231 11.4515 5.15213
1 17.1501 13.2876 6.69795
2 17.1105 11.3347 7.10104
1 15.1748 11.3498 7.48022
1 17.1429 11.3014 9.09282
2 15.1965 11.3314 9.46711
1 15.2164 13.2619 9.8622
1 15.2149 11.335 11.4617
2 15.2186 13.2671 11.8226
1 17.1416 13.264 12.2769
1 15.1864 13.2187 13.786
2 17.1251 13.2474 14.262
1 17.1385 11.2998 14.6772
1 17.1278 13.2455 16.2449
2 17.1176 11.3052 16.6651
1 15.1616 11.3585 17.0745
1 17.1281 11.2591 18.6514
2 15.1902 11.3038 19.0731
1 15.1754 13.2425 19.4929
1 15.2003 11.2863 21.0497
2 15.0834 13.2333 21.4597
1 16.9539 13.286 21.9098
1 15.1666 13.2412 23.4769
2 17.1222 13.3347 23.8508
1 17.1187 11.4603 23.9975
1 17.1004 13.4135 25.8083
1 15.1883 11.3695 26.7671
1 17.1118 11.372 28.6201
2 15.2192 15.4683 28.5863
1 15.2108 17.2393 0.313785
1 15.2236 14.9471 1.61906
2 15.2079 17.1645 2.25471
1 17.1051 17.1151 2.68312
1 15.1476 17.0441 4.22894
2 17.1202 17.1389 4.66858
1 17.1395 15.2188 5.08554
1 17.1002 17.1358 6.67721
2 17.1165 15.2028 7.0817
1 15.1632 15.1958 7.52189
1 17.1231 15.2055 9.0607
2 15.1978 15.2119 9.49781
1 15.1893 17.186 9.87118
1 15.2217 15.2086 11.4604
2 15.2113 17.139 11.8629
1 17.1854 17.1762 12.2424
1 15.3633 17.1418 13.8013
2 17.2323 17.1708 14.2762
1 17.1464 15.2017 14.6529
1 17.1147 17.1522 16.2458
2 17.0962 15.1943 16.6306
1 15.1446 15.1537 17.0561
1 16.9876 15.1999 18.577
2 15.1712 15.1837 19.1207
1 15.1749 17.1463 19.4815
1 15.1219 15.2097 21.0868
2 15.1699 17.1731 21.4593
1 17.1002 17.1587 21.9046
1 15.152 17.2282 23.4567
2 17.0994 17.1454 23.8737
1 17.1086 15.2329 24.2187
1 17.1128 17.0715 25.8342
2 17.1351 15.2309 26.2765
1 15.1832 15.2304 26.6765
1 17.1016 15.1132 28.2673
2 15.1975 19.1415 -0.0643988
1 15.2442 21.0517 0.288553
1 15.2393 19.128 1.92203
2 15.185 21.0564 2.24846
1 17.4048 21.0244 2.90149
1 15.2126 21.0472 4.14949
2 16.9368 21.0206 4.75979
1 17.1287 19.073 5.07608
1 17.0871 20.8327 6.62733
2 17.1733 18.993 7.0882
1 14.9507 19.01 7.72032
1 17.2724 19.1338 9.0265
2 15.4897 19.076 9.56489
1 15.1798 20.9555 9.91647
1 15.2365 19.0822 11.4798
2 15.1509 21.0018 11.9085
1 17.2209 21.0209 12.52
1 15.0581 21.0072 13.8574
2 16.8218 21.0236 14.3885
1 17.2111 19.1442 14.6969
1 17.0849 21.0337 16.2756
2 17.1368 19.0838 16.6945
1 15.2133 19.1041 17.0742
1 17.1171 19.135 18.6933
2 15.1755 19.101 19.0615
1 15.145 21.0487 19.4598
1 15.1769 19.1102 21.0499
2 15.1566 21.0312 21.4192
1 17.1636 21.094 21.799
1 15.1381 21.0237 23.3863
2 17.0892 21.0295 23.6708
1 17.0934 19.3179 24.5057
2 17.0985 18.8333 26.3582
1 15.2087 19.136 26.7266
1 17.1064 19.0897 28.2609
2 15.2495 22.9657 -0.113408
1 15.1918 24.891 0.272655
1 15.1804 22.9992 1.86698
2 15.3873 24.9155 2.17546
1 17.1275 24.8976 2.71606
1 14.8996 24.9037 4.0236
2 17.0838 24.8558 4.65798
1 17.205 22.935 4.77934
1 17.0751 25.0185 6.61297
1 15.088 22.9451 7.55407
1 17.1812 22.8182 9.42359
2 15.2017 22.8726 9.50828
1 15.2558 24.7736 9.88639
1 15.2018 22.9088 11.5238
2 15.2912 24.8771 11.8345