1732
Atoms. Timestep: 508
2 -0.166287 -0.137581 0.19036
1 -0.150741 1.85755 0.617499
1 -0.155297 -0.190112 2.1475
2 -0.143199 1.59392 2.42583
1 1.62022 1.8223 3.02065
2 1.93536 1.7623 4.92026
1 1.68935 -0.116999 5.28027
1 1.69454 1.73023 6.83345
2 1.94222 -0.151555 7.19728
1 1.66658 -0.155621 9.0918
2 -0.156464 -0.146274 9.72668
1 -0.154133 1.7512 9.95435
1 -0.150397 -0.15917 11.5873
2 -0.152358 1.76879 11.9247
1 1.7652 1.76363 12.3129
1 -0.144369 1.75663 13.8831
2 1.76599 1.75456 14.2675
1 1.70713 -0.182895 14.6511
1 1.76781 1.74819 16.2237
2 1.75864 -0.147575 16.6232
1 -0.252055 -0.152413 17.1003
1 1.8075 -0.149562 18.5627
2 0.0207051 -0.143492 18.9981
1 -0.229283 1.72288 19.3622
1 -0.223325 -0.117203 20.9184
2 0.025762 1.75919 21.2772
1 1.805 1.76548 21.7127
1 -0.247401 1.76817 23.1776
2 1.74789 1.78117 23.6569
1 1.75817 -0.146307 24.0464
1 1.70428 1.74822 25.6135
2 1.77411 -0.160852 26.0038
1 -0.107148 -0.145721 26.4026
1 1.75987 -0.144524 27.9703
2 -0.148513 3.67634 0.188231
1 -0.224281 5.50273 0.681863
2 0.0255039 5.78168 2.53035
1 1.77722 5.54184 2.92042
1 -0.26225 5.55488 4.35922
2 1.74562 5.58581 4.88131
1 1.70515 3.64477 5.25692
1 1.75953 5.57731 6.8344
2 1.77088 3.66858 7.23083
1 -0.151194 3.67103 7.61524
1 1.76593 3.68031 9.18575
2 -0.15168 3.67603 9.57563
1 -0.148342 5.59009 9.96799
1 -0.153694 3.6769 11.5341
2 -0.157607 5.59097 11.9259
1 1.76234 5.58987 12.3156
1 -0.143841 5.59915 13.8828
2 1.76675 5.59417 14.2922
1 1.7641 3.67752 14.6565
1 1.76424 5.58816 16.3147
2 1.77023 3.63989 16.5927
1 -0.142374 3.68455 17.0194
1 1.76473 3.79753 18.5832
2 -0.189964 3.62313 18.9664
1 -0.01289 5.58573 19.3446
1 -0.204697 3.63589 20.9294
2 -0.239844 5.53841 21.3296
1 1.76043 5.69991 21.5839
1 -0.136503 5.59837 23.2823
2 1.7685 5.54332 23.4971
1 1.72521 3.77689 24.1799
2 1.93966 3.50105 26.0113
1 1.65186 3.71395 27.8471
2 0.0227063 7.37398 0.230471
1 -0.178851 9.45095 0.483074
1 -0.23945 7.54117 2.09743
2 -0.165063 9.42371 2.60501
1 1.75869 9.41542 2.82949
1 -0.157335 9.42383 4.50016
2 1.73301 9.42293 4.83674
1 1.75944 7.50221 5.27215
1 1.8908 9.4215 6.84804
2 1.71798 7.45775 7.23065
1 -0.161341 7.50262 7.62082
1 1.76589 7.5093 9.18519
2 -0.15048 7.48991 9.57813
1 -0.152132 9.36079 9.99097
1 -0.156096 7.51097 11.5441
2 -0.148872 9.44247 11.9279
1 1.86251 9.42488 12.4093
1 -0.149586 9.43081 13.856
2 1.61115 9.42064 14.329
1 1.81243 7.5363 14.6392
1 1.78076 9.42138 16.2931
2 1.76148 7.5017 16.5536
1 -0.134053 7.50694 17.0237
1 1.76327 7.50548 18.7057
2 -0.288419 7.50103 18.9622
1 -0.0141607 9.41855 19.3416
1 -0.0126546 7.49703 20.9257
2 -0.230494 9.42649 21.3013
1 1.7623 9.30648 21.6174
1 -0.139208 9.53273 23.2827
2 1.81103 9.38761 23.7041
1 1.76174 7.41116 24.0619
1 1.74455 9.47119 25.7087
2 1.73851 7.64563 25.9866
1 -0.227645 7.46785 26.5059
1 1.79798 7.57837 27.9441
2 -0.155626 11.3886 0.226376
1 -0.155232 13.1667 0.534433
1 -0.153854 11.322 2.10244
2 -0.1532 13.2762 2.38343
1 1.65065 13.2502 3.02421
2 1.93636 13.239 4.93572
1 1.71847 11.3651 5.26686
1 1.78733 13.2865 6.91641
2 1.71021 11.3494 7.2078
1 -0.180163 11.4331 7.63323
1 1.70762 11.5093 9.22012
2 -0.181493 11.106 9.53175
1 -0.19627 11.4823 11.4253
2 -0.00987674 13.2364 12.0651
1 1.80487 13.2527 12.2041
1 -0.215729 13.3087 13.8459
2 1.75287 13.2432 14.2426
1 1.80298 11.3075 14.6414
1 1.75925 13.2503 16.2154
2 1.76116 11.3707 16.5948
1 -0.156624 11.3302 17.0047
1 1.76251 11.2117 18.5848
2 -0.194076 11.3779 18.9854
1 -0.151924 13.2554 19.3526
1 -0.151246 11.337 20.9944
2 -0.158518 13.2902 21.2903
1 1.72091 13.2481 21.7105
1 -0.145653 13.1127 23.288
2 1.83358 13.2961 23.6486
1 1.63816 11.3367 24.0007
1 1.7531 13.2393 25.6192
2 1.78816 11.3674 25.85
1 -0.1515 11.3085 26.5165
2 -0.118014 14.935 0.153091
1 -0.110636 15.2993 2.05015
2 -0.284594 17.0753 2.68253
1 -0.073607 17.0589 4.46886
2 1.71689 17.0287 5.04123
1 1.73075 15.1277 5.25947
1 1.83318 17.0414 6.8969
2 1.5724 15.1856 7.16626
1 -0.216295 15.0617 7.63965
1 1.80712 15.0252 9.12626
2 -0.181134 15.3836 9.52866
1 -0.138571 17.1287 9.97964
1 -0.19516 14.9923 11.416
2 -0.1484 17.0494 11.9193
1 1.76778 17.0711 12.2946
1 -0.174156 17.0204 13.8862
2 1.75258 17.0706 14.27
1 1.75749 15.1539 14.6535
1 1.75773 17.0661 16.2302
2 1.76543 15.1589 16.6158
1 -0.15523 15.1582 16.9947
1 1.7553 15.1572 18.5774
2 -0.145234 15.1536 18.9629
1 -0.173553 17.0372 19.3759
1 -0.198254 15.199 20.9368
2 0.0145929 17.0956 21.2701
1 1.794 17.0742 21.7087
1 -0.245105 17.0832 23.1652
2 1.74083 17.0739 23.6585
1 1.76901 15.1658 24.0473
1 1.75178 17.0759 25.6154
2 1.74684 15.1597 26.0063
1 -0.1555 15.195 26.4256
1 1.73139 15.2086 27.9873
2 -0.126549 19.208 0.14757
1 -0.149461 20.9589 0.593696
1 -0.105415 18.825 2.03166
2 -0.152569 20.872 2.53308
1 1.75932 20.8863 2.92798
1 -0.158232 20.8987 4.48979
2 1.71587 20.9491 4.88567
1 1.88759 18.9731 5.24933
1 1.77909 20.8984 6.84178
2 1.72445 18.987 7.25216
1 -0.150449 18.9826 7.62653
1 1.8208 18.9889 9.21386
2 -0.141046 19.002 9.58097
1 -0.147235 20.9026 9.96778
1 -0.155722 18.9859 11.5464
2 -0.152305 20.9019 11.9211
1 1.77788 20.8963 12.2948
1 -0.154186 20.9047 13.8744
2 1.72334 20.9076 14.2518
1 1.76559 18.9887 14.6609
1 1.89574 20.9061 16.2451
2 1.71874 18.9389 16.6151
1 -0.162389 18.998 17.0216
1 1.72369 19.0451 18.5849
2 -0.148562 18.8224 18.9295
1 -0.189057 19.0514 20.841
2 -0.148792 20.8945 21.4578
1 1.75441 20.896 21.6827
1 -0.149778 20.9028 23.3113
2 1.76662 20.8991 23.6562
1 1.75576 18.9864 24.0474
1 1.81147 20.9305 25.6312
2 1.76399 18.9943 26.0046
1 -0.159467 18.9562 26.422
1 1.73402 18.9307 27.9807
2 -0.131649 22.8295 0.187673
1 -0.150901 24.7303 0.577451
1 -0.143976 22.8135 2.15094
2 -0.148095 24.7187 2.54147
1 1.76604 24.7259 2.92569
1 -0.150344 24.7346 4.50086
2 1.76234 24.735 4.88344
1 1.7663 22.8266 5.28376
1 1.72794 24.7599 6.85654
2 1.77853 22.8225 7.23565
1 -0.15 22.8157 7.62095
1 1.74464 22.7611 9.19472
2 -0.160815 22.8107 9.57693
1 -0.151201 24.7371 9.91601
1 -0.149823 22.8254 11.5492
2 -0.150162 24.7244 11.7752
1 1.67151 24.722 12.4079
2 1.93626 24.7299 14.3046
1 1.72007 22.8443 14.6519
1 1.73949 24.7402 16.2137
2 1.72165 22.8613 16.6185
1 -0.158398 22.7999 17.0212
1 1.73543 22.7602 18.5795
2 -0.149812 22.9941 18.9294
1 -0.197828 24.7969 19.3508
1 -0.14852 22.7164 20.821
2 -0.150479 24.7139 21.3078
1 1.75639 24.7285 21.6945
1 -0.151133 24.7224 23.2687
2 1.76231 24.7312 23.6557
1 1.78437 22.8141 24.0625
1 1.81271 24.6958 25.6262
2 1.5936 22.8146 25.9676
1 -0.192093 22.8173 26.4004
1 1.86437 22.814 27.8626
2 3.67851 -0.150198 0.193752
1 3.66418 1.76791 0.581112
1 3.67417 -0.148621 2.15428
2 3.64986 1.76378 2.54262
1 5.58752 1.76384 2.88385
1 3.7211 1.75903 4.50102
2 5.60089 1.76423 4.73654
1 5.58894 -0.0506463 5.37047
2 5.58708 -0.317193 7.26687
1 3.74216 -0.0971071 7.6124
1 5.59188 -0.130541 9.18118
2 3.65845 -0.148534 9.57625
1 3.6748 1.7583 9.96099
1 3.6645 -0.158706 11.5363
2 3.66426 1.76281 11.9233
1 5.5479 1.7581 12.285
1 3.69064 1.75552 13.9045
2 5.6124 1.74095 14.1276
1 5.59582 -0.144483 14.8226
2 5.58709 -0.148242 16.6768
1 3.73325 -0.151279 16.977
1 5.59101 -0.151579 18.5456
2 3.68419 -0.151716 18.9662
1 3.68531 1.75496 19.3475
1 3.6767 -0.151844 20.9231
2 3.68662 1.761 21.311
1 5.5914 1.7668 21.7026
1 3.67301 1.77032 23.2774
2 5.59418 1.76211 23.6579
1 5.59814 -0.154295 24.0495
1 5.58636 1.76335 25.6165
2 5.58988 -0.156667 26.0037
1 3.67671 -0.150767 26.3949
1 5.59694 -0.154557 27.9613
2 3.66222 3.67354 0.188936
1 3.6738 5.58179 0.575758
1 3.6651 3.67169 2.14717
2 3.67943 5.59295 2.53734
1 5.59254 5.59396 2.93623
1 3.66871 5.58167 4.49807
2 5.54393 5.51986 4.88829
1 5.58608 3.57384 5.37305
1 5.60049 5.62371 6.82677
2 5.5897 3.84278 7.26867
1 3.70601 3.62209 7.603
1 5.59144 3.65428 9.17349
2 3.67544 3.67678 9.57855
1 3.67883 5.58468 9.97016
1 3.67675 3.67621 11.5371
2 3.67658 5.59002 11.9279
1 5.59279 5.58177 12.3165
1 3.67997 5.58965 13.8851
2 5.58919 5.5771 14.2751
1 5.59585 3.56572 14.7595
1 5.59246 5.63416 16.2168
2 5.58765 3.85135 16.6521
1 3.70676 3.63318 16.9996
1 5.59676 3.6522 18.5572
2 3.71882 3.63285 18.9666
1 3.54343 5.59045 19.3392
1 3.67329 3.67441 20.9184
2 3.75655 5.54849 21.3258
1 5.60361 5.58922 21.7038
1 3.66251 5.59855 23.2751
2 5.59021 5.59206 23.6597
1 5.59166 3.67513 24.0429
1 5.58495 5.58615 25.6148
2 5.59382 3.67581 26.0039
1 3.69228 3.72953 26.3934
1 5.58766 3.67561 27.9635
2 3.72822 7.47401 0.191854
1 3.47533 9.47644 0.550489
1 3.66749 7.51375 2.13697
2 3.70548 9.41775 2.58475
1 5.58997 9.41513 2.93153
1 3.66656 9.42648 4.57834
2 5.58097 9.46821 4.86452
1 5.71676 7.50809 5.26291
1 5.46459 9.42044 6.84995
2 5.60181 7.46721 7.25766
1 3.67161 7.63276 7.61377
1 5.58933 7.51015 9.1896
2 3.67439 7.46659 9.60486
1 3.67616 9.41477 9.85468
1 3.6763 7.51473 11.5531
2 3.67381 9.42 11.7437
1 5.48612 9.42034 12.4097
2 5.75838 9.4174 14.3047
1 5.54109 7.53701 14.6442
1 5.56858 9.41687 16.2104
2 5.58986 7.51263 16.6143
1 3.65784 7.50793 17.0264
1 5.62313 7.50395 18.5683
2 3.81378 7.506 18.9649
1 3.5381 9.42147 19.3466
1 3.53527 7.50602 20.9298
2 3.75036 9.47244 21.322
1 5.60669 9.42434 21.7005
1 3.66419 9.40087 23.261
2 5.55632 9.41762 23.6364
1 5.59918 7.50771 24.0536
1 5.70283 9.42454 25.6202
2 5.52953 7.46415 26.0051
1 3.63168 7.45719 26.3795
1 5.58986 7.51113 27.9579
2 3.90028 11.3662 0.239491
1 3.62734 13.2269 0.573979
1 3.64078 11.3344 2.12754
2 3.65656 13.2538 2.54792
1 5.58935 13.2444 2.91515
1 3.71701 13.2491 4.49578
2 5.59808 13.2399 4.88334
1 5.5809 11.3457 5.28917
1 5.59622 13.332 6.9085
2 5.63884 11.3933 7.23046
1 3.66844 11.212 7.61506
1 5.59544 11.3251 9.18331
2 3.72047 11.3235 9.60475
1 3.63693 13.2536 9.93036
1 3.66937 11.3307 11.5419
2 3.71603 13.2644 11.9474
1 5.59271 13.2533 12.3079
1 3.67245 13.247 13.8809
2 5.59117 13.2349 14.2686
1 5.54207 11.2993 14.6465
1 5.59069 13.2362 16.2229
2 5.57736 11.3319 16.6203
1 3.67282 11.3221 17.0096
1 5.59674 11.3357 18.5861
2 3.71818 11.3751 18.9607
1 3.69853 13.2462 19.3724
1 3.7266 11.3678 20.9295
2 3.507 13.2451 21.2781
1 3.78255 13.2512 23.1752
2 5.59275 13.2429 23.8033
1 5.58706 11.3397 24.0451
1 5.63245 13.2729 25.6643
2 5.51606 11.374 26.0078
1 3.56461 11.3297 26.5141
1 5.64498 11.3265 27.9442
2 3.6934 15.1539 0.182779
1 3.65427 17.0698 0.597223
1 3.63339 15.1772 2.15234
2 3.84532 17.0412 2.4841
1 5.61924 17.0811 2.94754
1 3.57327 17.2034 4.42117
2 5.63066 17.0323 4.88898
1 5.59094 15.1572 5.2392
1 5.5617 16.9806 6.91512
2 5.59666 15.1523 7.02499
2 3.54817 15.0547 9.71142
1 3.70574 15.2746 11.4669
2 3.67068 17.1081 12.076
1 5.57713 17.08 12.2948
1 3.6689 17.0748 13.9198
2 5.54722 17.0254 14.2887
1 5.5863 15.1511 14.6566
1 5.60388 17.0679 16.3055
2 5.59136 15.1227 16.5971
1 3.68077 15.1648 17.0125
1 5.59105 15.2895 18.5898
2 3.63082 15.1168 18.9638
1 3.80378 17.0716 19.3444
1 3.73035 15.128 20.9314
2 3.65444 17.064 21.3338
1 5.59701 17.0755 21.6205
1 3.67328 17.0714 23.2752
2 5.55929 17.0724 23.6094
1 5.62274 15.1542 24.0588
1 5.74859 17.0156 25.6354
2 5.36597 15.1309 25.9596
1 3.61298 15.1522 26.4054
1 5.69298 15.1705 27.8466
2 3.67112 18.9842 0.211122
1 3.67664 20.9027 0.565437
1 3.63192 18.9565 2.24403
2 3.6801 20.9256 2.51342
1 5.6299 20.9496 2.91987
1 3.66834 20.7663 4.50189
2 5.5534 20.9066 4.86422
1 5.46264 18.9707 5.27769
1 5.72626 20.9083 6.87022
2 5.58806 18.924 7.25535
1 3.67366 18.9729 7.57514
1 5.53028 18.991 9.21077
2 3.67147 18.9995 9.49623
1 3.6753 18.9882 11.3662
2 3.67338 20.8728 12.1062
1 5.57855 20.8992 12.2957
1 3.6727 20.9081 13.9928
2 5.58595 20.9806 14.2449
1 5.71415 18.9872 14.6442
1 5.46903 20.8735 16.2314
2 5.59922 18.965 16.6115
1 3.6736 19.1117 17.0118
1 5.61922 18.8935 18.5981
2 3.61792 19.0001 18.9934
1 3.67632 20.9085 19.2725
1 3.68304 18.9853 20.9211
2 3.67667 20.9016 21.2936
1 5.58989 20.8991 21.6864
1 3.67732 20.9022 23.2673
2 5.58929 20.8994 23.6584
1 5.60126 18.9801 24.0592
1 5.53644 20.9384 25.6303
2 5.54503 19.0311 26.0033
1 3.66927 18.9931 26.3997
1 5.58743 18.9848 27.9607
2 3.67745 22.8161 0.334975
1 3.67639 24.7208 0.565856
1 3.68021 22.8195 2.18441
2 3.6852 24.7302 2.53922
1 5.62914 24.6728 2.9212
1 3.67482 24.7446 4.50068
2 5.54608 24.8028 4.88493
1 5.71845 22.8194 5.23191
1 5.5984 24.686 6.8402
2 5.49771 22.8422 7.08816
1 3.76254 22.7844 7.75527
2 3.50171 22.9886 9.58497
1 3.71927 24.7482 9.96589
1 3.70716 22.6971 11.4113
2 3.65281 24.7076 11.9261
1 5.58779 24.7268 12.2699
1 3.72812 24.7284 13.8849
2 5.6005 24.7534 14.1252
1 5.58042 22.9219 14.7605
2 5.64409 22.6927 16.6438
1 3.7048 22.7207 16.9821
1 5.61136 22.7831 18.5609
2 3.6739 22.8441 18.9917
1 3.68231 24.7305 19.3478
1 3.67597 22.8139 20.9263
2 3.67605 24.7286 21.3149
1 5.5891 24.7238 21.7026
1 3.67725 24.7256 23.2743
2 5.59909 24.7293 23.6581
1 5.57102 22.816 24.0609
1 5.54113 24.6953 25.6299
2 5.75618 22.8158 25.9675
1 5.50469 22.8136 27.8748
2 7.49964 -0.168792 0.193803
1 7.50626 1.76373 0.570039
1 7.5028 -0.0957649 2.13876
2 7.50672 1.77471 2.53456
1 9.41865 1.76425 2.92857
1 7.49269 1.76016 4.50942
2 9.38546 1.76346 4.86171
1 9.45316 -0.141532 5.29754
1 9.59138 1.7085 6.87412
2 9.18116 -0.181198 7.19285
1 7.41888 -0.0980143 7.6207
1 9.53186 -0.14131 9.07311
2 7.52535 -0.157257 9.57634
1 7.52828 1.75758 9.97915
1 7.56202 -0.119979 11.5444
2 7.33761 1.76379 11.8837
1 7.57518 1.7587 13.7942
2 9.37203 1.76343 14.3948
1 9.43163 -0.13859 14.6584
1 9.54623 1.75366 16.27
2 9.36411 -0.199489 16.6216
1 7.44063 -0.156662 16.9773
1 9.37905 -0.140053 18.5569
2 7.49991 -0.139934 18.9678
1 7.49997 1.76444 19.3484
1 7.50777 -0.142137 20.9289
2 7.48897 1.77028 21.3087
1 9.36464 1.74309 21.7331
1 7.52112 1.70953 23.2859
2 9.37047 1.88961 23.6223
1 9.43409 1.66461 25.504
2 9.4115 -0.146393 26.1562
1 7.51149 -0.157214 26.381
1 9.41286 -0.154902 28.0055
2 7.50186 3.67288 0.192219
1 7.5065 5.58 0.58033
1 7.50416 3.67006 2.14987
2 7.50606 5.5565 2.51986
1 9.42108 5.59687 2.93327
1 7.50237 5.7169 4.50963
2 9.47504 5.5452 4.88314
1 9.43168 3.66289 5.28694
1 9.40385 5.5979 6.83654
2 9.36462 3.71777 7.23512
1 7.46915 3.62693 7.6074
1 9.40988 3.6667 9.18391
2 7.5022 3.67844 9.57993
1 7.49913 5.5885 9.9651
1 7.55516 3.64383 11.5492
2 7.50411 5.58649 11.9232
1 9.41087 5.58638 12.3174
1 7.49761 5.5888 13.8868
2 9.41399 5.5895 14.2741
1 9.42373 3.66497 14.6525
1 9.41671 5.60038 16.2297
2 9.36213 3.7267 16.6176
1 7.46667 3.62885 16.9908
1 9.41869 3.67091 18.5734
2 7.50714 3.67835 18.9652
1 7.50533 5.58829 19.3513
1 7.50527 3.67754 20.9228
2 7.5053 5.59051 21.3098
1 9.41866 5.58439 21.701
1 7.49796 5.59591 23.2719
2 9.36858 5.63471 23.6532
1 9.54301 3.70158 24.0457
1 9.47938 5.59854 25.62
2 9.38046 3.66101 26.0247
1 7.50255 3.67405 26.3942
1 9.419 3.66988 27.9614
2 7.46892 7.43 0.225286
1 7.63839 9.40762 0.483341
1 7.51638 7.50909 2.21345
2 7.46405 9.45222 2.52487
1 9.38082 9.415 2.8504
1 7.5111 9.29074 4.50677
2 9.49096 9.46291 4.85543
1 9.29587 7.5097 5.26204
1 9.42015 9.41715 6.82901
2 9.45417 7.5053 7.25428
1 7.5119 7.50009 7.54177
1 9.41169 7.5081 9.18978
2 7.50355 7.50653 9.55815
1 7.4998 9.41824 9.97153
1 7.49994 7.50813 11.5337
2 7.4848 9.41809 11.9291
1 9.42392 9.41494 12.3118
1 7.54638 9.42205 13.8767
2 9.43384 9.41812 14.2673
1 9.42512 7.50854 14.6653
1 9.47019 9.44075 16.2436
2 9.44061 7.51236 16.6211
1 7.50853 7.51005 16.9964
1 9.37927 7.50191 18.5671
2 7.50284 7.50696 18.9661
1 7.51782 9.43036 19.3577
1 7.50958 7.50781 20.9252
2 7.50663 9.42666 21.3327
1 9.42375 9.43161 21.6958
1 7.50215 9.41151 23.3594
2 9.40491 9.37328 23.6343
1 9.42934 7.51126 24.0727
1 9.32776 9.39033 25.7231
2 9.29111 7.4194 25.9652
1 7.4772 7.64104 26.3928
1 9.53076 7.64539 27.8775
2 7.47766 11.4074 0.204602
1 7.50143 13.2547 0.576509
1 7.51002 11.3333 2.13906
2 7.50863 13.2429 2.54986
1 9.42118 13.2457 2.92243
1 7.50387 13.2516 4.50889
2 9.41577 13.2445 4.88066
1 9.42853 11.3375 5.27614
1 9.41621 13.3019 6.86552
2 9.41752 11.3412 7.23155
1 7.5133 11.3464 7.61948
1 9.41646 11.3329 9.19247
2 7.50605 11.3382 9.5801
1 7.45159 13.3011 9.92244
1 7.50239 11.3339 11.5315
2 7.50379 13.2384 11.9213
1 9.42725 13.2519 12.3119
1 7.5008 13.2379 13.8835
2 9.39483 13.2431 14.2481
1 9.45932 11.3349 14.6907
1 9.53863 13.1885 16.2576
2 9.19319 11.2931 16.5793
1 7.44565 11.3239 17.022
1 9.59386 11.4085 18.4648
2 7.53549 11.3318 18.9596
1 7.49606 13.2335 19.3737
1 7.45952 11.3627 20.9314
2 7.67178 13.2455 21.2809
1 9.46583 13.2403 21.6972
1 7.40384 13.2532 23.1729
2 9.3433 13.2893 23.6433
1 9.53856 11.328 24.0445
1 9.37481 13.2758 25.6109
2 9.42471 11.4191 26.0171
1 7.50615 11.1981 26.3797
1 9.42251 11.196 27.9755
2 7.45574 15.1001 0.367343
1 7.63056 17.0558 0.451983
1 7.51156 15.1672 2.19482
2 7.47233 17.0672 2.55731
1 9.38459 17.0714 2.84717
1 7.5165 17.0663 4.51664
2 9.44287 17.0781 4.85109
1 9.42527 15.1659 5.29799
1 9.42299 16.9975 6.85669
2 9.42252 15.1528 7.1674
1 9.45431 15.1599 9.01961
2 7.74391 15.1537 9.75911
1 7.43564 17.0106 9.92218
1 7.48706 15.152 11.5598
2 7.50372 17.0443 11.9038
1 9.4149 17.0752 12.3117
1 7.49967 17.2035 13.8936
2 9.46329 17.0243 14.2698
1 9.43093 15.1399 14.6742
1 9.41452 17.0769 16.2285
2 9.3827 15.1909 16.6185
1 7.50289 15.1675 17.0156
1 9.46764 15.0942 18.5782
2 7.56154 15.1064 18.9643
1 7.37922 17.0401 19.3483
1 7.45185 15.1295 20.933
2 7.53609 17.0819 21.3535
1 9.42236 17.0685 21.7002
1 7.50542 17.0768 23.3544
2 9.45082 17.0738 23.6449
1 9.37584 15.1708 24.069
1 9.24878 17.0134 25.7338
2 9.65588 15.0965 25.947
1 9.3017 15.3062 27.8572
2 7.46343 19.0939 0.207388
1 7.49411 21.0147 0.686231
1 7.51301 18.9277 2.12542
2 7.50445 20.693 2.57841
1 9.3805 20.9614 2.91364
1 7.50856 21.0531 4.56863
2 9.47428 20.8515 4.81943
1 9.42555 18.9827 5.29401
1 9.40968 20.9084 6.88747
2 9.40919 18.8565 7.23989
1 7.50354 19.0951 7.62086
1 9.41389 19.0024 9.18371
2 7.49457 18.9519 9.63209
1 7.438 20.9373 9.86268
1 7.51156 18.9852 11.6069
2 7.50887 20.9299 11.8766
1 9.41544 20.8971 12.314
1 7.50256 20.7753 13.8845
2 9.46447 20.9469 14.2731
1 9.2887 18.9871 14.6508
1 9.40608 20.9008 16.2309
2 9.45658 18.9861 16.6382
1 7.50914 18.996 16.956
1 9.39793 19.0404 18.5876
2 7.5603 18.8639 18.9125
1 7.49577 19.071 20.8168
2 7.46245 20.8472 21.4571
1 9.40581 21.0285 21.6713
1 7.50543 20.908 23.3035
2 9.41944 20.8577 23.6792
1 9.40892 18.967 24.0634
1 9.42696 20.915 25.6203
2 9.46462 19.0563 25.9942
1 7.50391 18.9105 26.3959
1 9.41926 18.858 27.9732
2 7.48233 22.8159 0.0391587
1 7.49911 24.6242 0.675334
2 7.50555 24.9318 2.55945
1 9.37944 24.665 2.9213
1 7.50488 24.5933 4.48139
2 9.46559 24.772 4.87885
1 9.29343 22.8051 5.28841
1 9.449 24.7679 6.84646
2 9.45103 22.932 7.26034
1 7.41598 22.6817 7.6092
1 9.45486 22.798 9.16821
2 7.67792 22.8482 9.62233
1 7.46053 24.7106 9.95088
1 7.48337 22.82 11.5171
2 7.50889 24.7381 11.9274
1 9.41541 24.7302 12.3115
1 7.49126 24.7339 13.9
2 9.41849 24.7311 14.2692
1 9.42281 22.8219 14.6641
1 9.41105 24.7265 16.2318
2 9.41535 22.8153 16.6383
1 7.4877 22.8497 17.0102
1 9.38345 22.7629 18.6689
2 7.47603 22.9772 18.9123
1 7.50589 24.7621 19.3616
1 7.64041 22.7104 20.8384
2 7.4534 24.7649 21.3046
1 9.41327 24.6125 21.6973
1 7.53754 24.764 23.2711
2 9.41714 24.5997 23.6557
1 9.41911 22.7786 23.9662
1 9.41706 24.8282 25.5261
2 9.42916 22.8378 25.9761
1 7.55125 22.8212 26.3562
1 9.40728 22.8207 27.9722
2 11.3385 -0.149675 0.192514
1 11.3332 1.76327 0.580629
1 11.3297 -0.152748 2.15219
2 11.3218 1.76293 2.55931
1 13.2033 1.76351 2.92736
1 11.3306 1.76129 4.58216
2 13.2934 1.75082 4.85273
1 13.2172 -0.145177 5.29912
1 13.0778 1.70094 6.86975
2 13.4801 -0.185286 7.19259
1 13.1299 -0.135493 9.07028
2 11.3361 -0.17931 9.76452
1 11.3104 1.74492 9.89232
1 11.2818 -0.111066 11.6014
2 11.5027 1.76979 11.8895
1 13.2856 1.7698 12.3197
1 11.2363 1.76063 13.8596
2 13.2168 1.72007 14.2383
1 13.2315 -0.153103 14.6239
1 13.1163 1.75525 16.2445
2 13.294 -0.190504 16.469
1 11.4369 -0.0131535 17.0912
2 11.1568 -0.184126 19.019
1 11.4175 1.73463 19.2923
1 11.4214 -0.118298 20.9164
2 11.1004 1.70729 21.2156
1 11.4093 1.88779 23.1792
2 13.1961 1.64856 23.8132
1 13.2589 -0.172824 24.0418
1 13.3807 1.78444 25.6514
2 13.1342 -0.154478 25.9969
1 11.3019 -0.147376 26.3768
1 13.2569 -0.147515 27.9425
2 11.3302 3.67381 0.172449
1 11.3367 5.5961 0.564847
1 11.3323 3.68083 2.14816
2 11.3295 5.59263 2.53623
1 13.248 5.61686 2.9463
1 11.3725 5.63558 4.50925
2 13.247 5.41776 4.87071
1 13.2455 3.62501 5.29102
1 13.2514 5.68591 6.81738
2 13.2908 3.69871 7.20461
1 11.3363 3.60811 7.62107
1 13.2448 3.80486 9.19195
2 11.2848 3.66523 9.60344
1 11.4617 5.59263 9.9626
1 11.2875 3.64065 11.5436
2 11.2976 5.58381 11.9479
1 13.2442 5.57999 12.239
1 11.3242 5.59604 13.8853
2 13.198 5.6179 14.2487
1 13.3667 3.67152 14.6608
1 13.2542 5.60396 16.2391
2 13.2573 3.72835 16.6718
1 11.3269 3.54991 16.9976
1 13.2505 3.66513 18.6673
2 11.2992 3.71394 18.9752
1 11.3897 5.61126 19.3595
1 11.483 3.61436 21.0353
2 11.2901 5.66241 21.304
1 13.2445 5.50148 21.7015
1 11.3347 5.45284 23.2881
2 13.2465 5.72477 23.6508
1 13.2452 3.66158 23.8889
1 13.2418 5.6335 25.6153
2 13.2046 3.74093 26.0673
1 11.32 3.6799 26.3
1 13.2526 3.66912 27.9674
2 11.4078 7.46197 0.333749
1 11.2342 9.40386 0.57171
1 11.3872 7.54174 2.19067
2 11.2003 9.42497 2.5338
1 11.4583 9.3641 4.40863
2 13.1929 9.54008 4.99397
1 13.2543 9.33541 6.79199
2 13.2484 7.54189 7.36271
1 11.3502 7.50173 7.61391
1 13.251 7.37865 9.23255
2 11.2854 7.55055 9.58191
1 11.3282 9.42631 9.96684
1 11.3424 7.50496 11.5374
2 11.3393 9.41901 11.9274
1 13.2791 9.49649 12.3209
1 11.3709 9.47398 13.9
2 13.2496 9.24661 14.2249
1 13.2472 7.46612 14.6226
1 13.1819 9.48008 16.1327
2 13.2456 7.52491 16.4671
1 11.4386 7.51159 17.1037
2 11.1645 7.48815 18.9926
1 11.3892 9.33909 19.3306
1 11.351 7.51274 20.9015
2 11.3325 9.39697 21.2873
1 13.239 9.42849 21.6971
1 11.3351 9.54791 23.2791
2 13.292 9.38324 23.6509
1 13.2491 7.52892 24.0853
1 13.2405 9.36518 25.636
2 13.2436 7.50417 25.9514
1 13.2521 7.50228 27.8023
2 11.3762 11.378 0.169062
1 11.3276 13.2494 0.581528
1 11.3717 11.2947 2.15245
2 11.3314 13.2429 2.53884
1 13.2462 13.2408 2.93199
1 11.3215 13.2529 4.50071
2 13.204 13.2844 4.88343
1 13.3765 11.3618 5.25432
1 13.2009 13.2776 6.85674
2 13.2001 11.3247 7.25171
1 11.3287 11.3331 7.62317
1 13.2629 11.3337 9.20658
2 11.3327 11.3366 9.58404
1 11.3243 13.2593 9.95355
1 11.3438 11.34 11.5432
2 11.3385 13.2425 11.9467
1 13.3085 13.2343 12.2481
1 11.3887 13.1657 14.0348
2 13.2178 13.3875 14.0406
2 13.4475 11.1085 16.7676
1 13.0459 11.4656 18.4722
2 11.3238 11.1305 19.1491
1 11.3286 11.4167 20.9562
2 11.3438 13.2921 21.4435
1 13.2363 13.2451 21.6976
1 11.3328 13.1244 23.3206
2 13.2954 13.3125 23.6637
1 13.1176 11.3252 24.0356
1 13.2376 13.2014 25.6051
2 13.2816 11.3091 26.0262
1 11.3349 11.3243 26.3187
1 13.254 11.3349 27.97
2 11.3673 15.1126 0.188003
1 11.2266 17.0654 0.584727
1 11.3674 15.1924 2.1524
2 11.2045 17.0697 2.53848
1 11.4725 17.1276 4.4184
2 13.2453 16.9133 4.99234
1 13.2145 15.1313 5.29277
1 13.2635 17.1625 6.81009
2 13.4104 15.1782 7.19237
1 13.16 15.1607 9.09859
2 11.3189 15.1577 9.72039
1 11.329 17.0588 9.94963
1 11.335 15.153 11.5766
2 11.3374 17.0757 11.9256
1 13.2719 16.9975 12.3092
1 11.3377 17.0705 13.8804
2 13.2004 17.1185 14.273
1 13.3667 15.0762 14.7713
1 13.2543 17.1308 16.2113
2 13.2505 15.3893 16.695
1 11.384 15.001 17.0211
1 13.2084 15.0666 18.566
2 11.3332 15.3618 18.942
1 11.3311 17.1282 19.3591
1 11.333 15.0752 20.8244
2 11.3295 17.0571 21.305
1 13.2454 17.0751 21.6644
1 11.3359 17.0648 23.2792
2 13.2067 17.0257 23.512
1 13.2453 15.2506 24.1445
2 13.2594 14.9914 26.0411
1 11.4142 15.2185 26.3996
1 13.2546 15.1786 27.9524
2 11.3717 19.0368 0.19726
1 11.3346 20.9053 0.583747
1 11.3744 18.9544 2.16449
2 11.322 20.8987 2.55409
1 13.2364 20.873 2.94305
1 11.3747 20.8418 4.5929
2 13.2721 21.0779 4.82653
1 13.1428 20.7579 6.76623
2 13.1236 18.9294 7.34132
1 11.3028 19.1165 7.59321
1 13.336 18.9906 9.13883
2 11.3456 18.9546 9.59932
1 11.3371 20.8945 9.88342
1 11.3399 18.9831 11.5332
2 11.3292 20.8978 11.9016
1 13.2389 20.9006 12.3138
1 11.3396 20.9037 13.8792
2 13.2541 20.9025 14.2709
1 13.2491 18.9984 14.6518
1 13.2445 20.9024 16.2294
2 13.2499 19.002 16.6188
1 11.3372 18.9842 17.0119
1 13.2486 18.988 18.5776
2 11.3292 19.0011 18.9671
1 11.3238 20.9055 19.3598
1 11.3359 18.9806 20.9299
2 11.3776 20.8548 21.3091
1 13.2549 20.885 21.713
1 11.3242 20.9046 23.2618
2 13.2019 20.9427 23.6607
1 13.3818 18.8819 24.1322
1 13.2458 20.9266 25.5987
2 13.2172 19.1506 26.0619
1 11.3553 18.9305 26.388
1 13.247 18.9625 27.9507
2 11.3276 22.818 0.19429
1 11.3335 24.7302 0.579218
1 11.3304 22.8121 2.15393
2 11.3243 24.7267 2.53944
1 13.2511 24.7287 2.92515
1 11.3353 24.7363 4.49565
2 13.2473 24.7355 4.88057
1 13.2402 22.8508 5.29655
1 13.2043 24.7621 6.85563
2 13.3007 22.8641 7.231
1 11.354 22.6772 7.6049
1 13.25 22.7987 9.17786
2 11.3427 22.8457 9.60465
1 11.333 24.7372 9.96392
1 11.3303 22.8141 11.5383
2 11.3316 24.7315 11.9316
1 13.2463 24.7327 12.3112
1 11.3336 24.7257 13.8858
2 13.2513 24.7222 14.2686
1 13.2508 22.8154 14.661
1 13.2469 24.7283 16.2451
2 13.2473 22.8121 16.6148
1 11.3258 22.8134 17.0071
1 13.2574 22.823 18.5706
2 11.3614 22.818 18.9424
1 11.3669 24.7495 19.3494
1 11.2052 22.822 20.9373
2 11.3881 24.7744 21.3112
1 13.2894 24.7968 21.6831
1 11.2946 24.7684 23.2694
2 13.2046 24.7212 23.6322
1 13.2466 22.8282 24.0448
1 13.3795 24.7262 25.6292
2 13.2011 22.7766 26.0035
1 11.3174 22.8143 26.3936
1 13.2395 22.8218 27.9553
2 15.1538 -0.151861 0.261363
1 15.1771 1.76934 0.513963
1 15.209 -0.116575 2.17538
2 14.986 1.76758 2.47118
1 15.2212 1.75748 4.38174
2 16.8898 1.73698 5.08204
1 17.121 -0.187919 5.33
1 17.1012 1.80812 6.87337
2 17.0885 0.0125963 7.26658
1 15.2496 -0.205497 7.6118
1 17.0759 -0.17248 9.17753
2 15.1346 -0.150968 9.56981
1 15.1601 1.75125 9.96137
1 15.1552 -0.158995 11.5283
2 15.1695 1.72994 11.901
1 17.0748 1.7673 12.3198
1 15.1649 1.89194 13.893
2 17.1284 1.73048 14.2713
1 17.0755 -0.117498 14.6733
1 17.0658 1.7595 16.2328
2 17.0668 -0.169883 16.618
1 15.08 -0.15806 17.0519
1 17.1148 -0.14898 18.5746
2 15.3252 -0.148567 18.8509
1 15.0472 1.60708 19.4879
2 15.3847 1.86417 21.2912
1 17.1104 1.7185 21.7127
1 15.0401 1.89488 23.2146
2 17.1629 1.72651 23.6404
1 17.0542 -0.148042 24.0507
1 16.9244 1.76689 25.612
2 17.1703 -0.146629 25.9927
1 15.1555 -0.157959 26.3451
1 17.0454 -0.146872 27.9451
2 15.1591 3.71437 0.205994
1 15.1537 5.60729 0.570913
1 15.2111 3.6503 2.16419
2 15.1679 5.58646 2.54062
1 17.1012 5.63676 2.9174
1 15.1293 5.63189 4.51072
2 17.0647 5.58124 4.88536
1 17.1306 3.62347 5.22433
1 17.0757 5.58618 6.8345
2 17.0793 3.69493 7.23009
1 15.1596 3.68472 7.62309
1 17.0829 3.67216 9.18794
2 15.2068 3.63009 9.59973
1 15.0313 5.58744 9.94765
1 15.1541 3.67892 11.6079
2 15.1949 5.61525 11.9233
1 17.0818 5.58817 12.3247
1 15.1585 5.46074 13.8965
2 17.1296 5.6343 14.2738
1 16.9448 3.67728 14.651
1 17.0621 5.5932 16.2257
2 17.1093 3.67748 16.639
1 15.1654 3.67569 16.934
1 17.0677 3.66929 18.5831
2 15.1882 3.65838 18.9326
1 15.1021 5.60619 19.3516
1 15.0061 3.65553 21.0292
2 15.2027 5.66645 21.2964
1 17.0748 5.58275 21.703
1 15.1589 5.46991 23.2819
2 17.1218 5.63345 23.6572
1 16.9458 3.66728 24.039
1 17.0188 5.62443 25.6246
2 17.1536 3.72456 26.021
1 15.157 3.54734 26.2809
1 17.0655 3.6734 27.9616
2 15.1417 7.50079 0.332989
1 15.135 9.40605 0.57841
1 15.1013 7.53241 2.19577
2 15.3451 9.3957 2.47471
1 17.1353 9.37557 2.93019
1 15.0217 9.5204 4.41747
2 17.1093 9.36985 4.88322
1 17.0665 7.50313 5.27276
1 17.1131 9.44997 6.84767
2 17.0804 7.50581 7.23013
1 15.1521 7.50699 7.61326
1 17.0783 7.51563 9.1851
2 15.2073 7.57988 9.57881
1 15.1688 9.53681 10.0636
1 15.1536 7.47066 11.5186
2 15.1547 9.24722 11.9619
1 17.0298 9.46316 12.2986
1 15.1244 9.49563 13.8779
2 17.0609 9.41922 14.2717
1 17.0715 7.51347 14.6608
1 17.0701 9.41658 16.2338
2 17.0515 7.50398 16.6232
1 15.052 7.51448 17.1049
1 17.1117 7.50275 18.5674
2 15.327 7.50306 18.9973
1 15.0966 9.39775 19.3305
1 15.1388 7.51986 20.8999
2 15.1614 9.42438 21.3129
1 17.073 9.41656 21.6972
1 15.1667 9.41116 23.2736
2 17.078 9.42247 23.6571
1 17.0505 7.51112 24.0642
1 17.0226 9.386 25.6311
2 17.2367 7.5065 25.97
1 16.9808 7.50584 27.8777
2 15.1657 11.3318 0.215044
1 15.1609 13.2437 0.582277
1 15.1114 11.2931 2.24675
2 15.1566 13.2794 2.51482
1 17.0676 13.2416 2.9283
1 15.1648 13.1152 4.51147
2 17.1169 13.294 4.88388
1 16.9517 11.3187 5.27082
1 17.1178 13.2067 6.85358
2 16.9474 11.3295 7.2257
1 15.1152 11.3344 7.51169
1 17.1424 11.3366 9.10926
2 15.1792 11.3558 9.39761
1 15.1628 13.2459 10.1174
2 15.1655 13.1906 11.964
1 16.9994 13.264 12.2982
1 15.116 13.3501 13.896
2 17.1068 13.2001 14.273
1 17.0638 11.3257 14.6563
1 17.0682 13.2493 16.2203
2 17.0822 11.3333 16.6204
1 15.1761 11.3958 16.9819
1 17.0671 11.3242 18.5732
2 15.1354 11.3271 18.957
1 15.1471 13.2389 19.3445
1 15.1578 11.3288 20.9119
2 15.1588 13.2418 21.3069
1 17.0727 13.2459 21.6982
1 15.1614 13.2523 23.2663
2 17.0707 13.243 23.6579
1 17.0767 11.3295 24.05
1 17.0747 13.2501 25.6188
2 17.0738 11.3269 26.0037
1 15.1662 11.3251 26.4001
1 17.0767 11.3291 27.9686
2 15.1546 15.1571 0.189641
1 15.1336 17.0694 0.594656
1 15.1121 15.1969 2.16379
2 15.3348 17.0745 2.50004
1 17.1208 17.0755 2.94719
1 15.0074 17.1344 4.40472
2 16.9625 17.033 4.86092
1 17.0743 15.1697 5.28456
1 17.1193 17.1055 6.85681
2 17.0499 15.1084 7.23172
1 15.1929 15.16 7.58995
1 17.0678 15.1586 9.19558
2 15.1389 15.1373 9.43244
1 15.1584 16.981 10.0508
2 15.1005 17.2322 11.9389
1 17.0399 17.1638 12.2873
1 15.1524 16.9024 13.8596
2 17.1235 17.0734 14.2994
1 16.9491 15.1509 14.6459
1 17.065 17.067 16.2315
2 17.1082 15.1547 16.6458
1 15.1281 15.1101 16.9063
1 17.0701 15.1648 18.5755
2 15.1529 15.1547 18.9416
1 15.1541 17.0683 19.3439
1 15.1592 15.152 20.9166
2 15.1611 17.0401 21.2849
1 17.0617 17.0724 21.7111
1 15.1484 17.201 23.2961
2 17.124 17.028 23.6552
1 17.0861 15.153 24.0494
1 17.0684 17.0645 25.6072
2 17.0831 15.1593 26.01
1 15.1279 15.2071 26.3765
1 17.0279 15.1582 27.9539
2 15.12 18.9425 0.173747
1 15.2885 20.8901 0.574272
1 15.1093 18.9545 2.16022
2 15.1292 20.8903 2.56092
1 17.0724 20.8987 2.86123
1 15.1328 20.8518 4.51671
2 17.0262 20.9759 4.8665
1 17.1882 18.9825 5.2802
1 17.0317 20.8377 6.83991
2 17.175 19.0253 7.24987
1 16.987 18.9758 9.15975