1794
Atoms. Timestep: 727
2 -0.1949 -0.194823 -0.0240106
1 -0.194938 1.72465 0.378593
1 -0.194969 -0.194499 1.95552
2 -0.196213 1.72507 2.3593
1 1.72441 1.72655 2.75965
1 -0.195263 1.72466 4.33917
2 1.72589 1.72936 4.739
1 1.73335 -0.18404 5.13091
1 1.72169 1.72775 6.71989
2 1.71688 -0.18744 7.12007
1 -0.202179 -0.175464 7.52893
1 1.72676 -0.198533 9.09939
2 -0.19402 -0.195637 9.50321
1 -0.188505 1.72621 9.89864
1 -0.190967 -0.197639 11.4752
2 -0.19159 1.73505 11.8621
1 1.73523 1.68637 12.2867
1 -0.209872 1.84721 13.7718
2 1.72155 1.60654 14.2942
1 2.49336 -0.198819 14.7192
1 1.75826 1.75071 16.2744
2 1.74049 -0.202229 16.5635
1 -0.118264 -0.204636 17.1865
1 1.75622 -0.196633 18.6842
2 -0.184487 -0.199426 19.0749
1 -0.184026 1.72364 19.4561
1 -0.193417 -0.196631 21.0303
2 -0.19426 1.72109 21.4287
1 1.72727 1.72405 21.8228
1 -0.190336 1.72522 23.4065
2 1.72686 1.72437 23.8027
1 1.72562 -0.195456 24.204
1 1.72578 1.72155 25.7851
2 1.72501 -0.196122 26.1841
1 -0.194905 -0.195468 26.5862
1 1.7251 -0.195279 28.1641
2 -0.194502 3.64475 -0.0231849
1 -0.195179 5.56393 0.379059
1 -0.195255 3.64449 1.95579
2 -0.195414 5.56373 2.35878
1 1.72702 5.56576 2.75935
1 -0.186348 5.54491 4.33339
2 1.72701 5.56474 4.74105
1 1.72756 3.64549 5.14352
1 1.72495 5.56573 6.72118
2 1.72555 3.64565 7.12287
1 -0.19371 3.64635 7.52222
1 1.72618 3.64597 9.10181
2 -0.193506 3.64827 9.49748
1 -0.19396 5.56977 9.90249
1 -0.186769 3.65524 11.4639
2 -0.191162 5.56657 11.8789
1 1.73211 5.56284 12.2831
1 -0.176481 5.58639 13.8411
2 1.72803 5.55846 14.2637
1 1.7212 3.63824 14.6788
1 1.75523 5.56913 16.2322
2 1.7343 3.65832 16.6552
1 -0.144599 3.78517 17.1175
1 1.74699 3.61321 18.6436
2 -0.182332 3.64584 19.0496
1 -0.0750827 5.5257 19.4817
1 -0.216165 3.62797 21.0319
2 -0.183912 5.55121 21.4286
1 1.70681 5.43385 21.8746
1 -0.203974 5.57798 23.409
2 1.72577 5.55241 23.8134
1 1.72665 3.63868 24.2189
1 1.72584 5.56365 25.7853
2 1.725 3.64241 26.1895
1 -0.193817 3.6425 26.5878
1 1.72538 3.64462 28.1657
2 -0.192335 7.48386 -0.0213666
1 -0.189011 9.40275 0.372993
1 -0.188334 7.48253 1.95549
2 -0.191758 9.40545 2.35684
1 1.72305 9.40565 2.76472
1 -0.201888 9.40665 4.33309
2 1.72006 9.40321 4.74291
1 1.7256 7.48497 5.14265
1 1.72346 9.4028 6.72264
2 1.72532 7.48476 7.1239
1 -0.189389 7.48689 7.53829
1 1.72709 7.48357 9.10575
2 -0.192266 7.48723 9.51011
1 -0.194297 9.40641 9.90921
1 -0.194042 7.48642 11.4854
2 -0.19429 9.40599 11.8856
1 1.72605 9.40581 12.287
1 -0.192857 9.40742 13.8599
2 1.72441 9.40427 14.2587
1 1.7333 7.48343 14.6601
1 1.73361 9.40313 16.22
2 1.73447 7.48651 16.6365
1 -0.171362 7.50992 17.0232
1 1.70264 7.48598 18.5715
2 -0.295307 7.48779 19.0066
1 -0.12697 9.44732 19.5005
1 -0.131472 7.44942 20.9752
2 -0.300838 9.42252 21.4577
1 1.68246 9.50832 21.8801
1 -0.18357 9.39914 23.4475
2 1.72787 9.41692 23.8172
1 1.72673 7.48196 24.2052
1 1.73207 9.4039 25.7907
2 1.72541 7.48446 26.1836
1 -0.190877 7.48453 26.5918
1 1.72722 7.4842 28.1655
2 -0.193118 11.3245 -0.0257553
1 -0.196393 13.2467 0.376987
1 -0.189019 11.3231 1.94217
2 -0.192435 13.2356 2.35102
1 1.73993 13.2535 2.74578
1 -0.1487 13.1465 4.29355
2 1.73635 13.2369 4.73743
1 1.74415 11.3162 5.14734
1 1.71561 13.2458 6.71618
2 1.72211 11.3256 7.12259
1 -0.188604 11.3194 7.5403
1 1.72514 11.3224 9.10592
2 -0.19377 11.3274 9.51246
1 -0.194606 13.2456 9.91876
1 -0.194311 11.3258 11.4892
2 -0.194388 13.2505 11.893
1 1.72571 13.2458 12.291
1 -0.194791 13.248 13.8679
2 1.72139 13.2484 14.2753
1 1.72302 11.3271 14.6674
1 1.72329 13.2446 16.2547
2 1.72765 11.3105 16.6377
1 -0.202963 11.3643 17.0542
1 1.73649 11.159 18.5604
2 -0.186537 11.4385 19.0528
1 0.448872 13.2675 19.4238
1 -0.09791 11.3617 21.0102
2 -0.194446 13.2611 21.323
1 1.73458 13.2663 21.8966
1 -0.20001 13.2438 23.4138
2 1.72598 13.2472 23.8175
1 1.73315 11.3308 24.2292
1 1.7247 13.2496 25.7893
2 1.72555 11.3263 26.1937
1 -0.191871 11.3261 26.5912
1 1.72718 11.326 28.167
2 -0.194719 15.1662 -0.0217291
1 -0.195927 17.0867 0.376649
1 -0.191054 15.1665 1.95853
2 -0.193735 17.098 2.35229
1 1.73541 17.0763 2.74611
1 -0.160425 17.2039 4.3007
2 1.73379 17.0898 4.73316
1 1.7422 15.1643 5.13308
1 1.71756 17.0804 6.71102
2 1.7202 15.1641 7.12051
1 -0.176299 15.1604 7.57604
1 1.73555 15.1637 9.11224
2 -0.19756 15.1637 9.51522
1 -0.195254 17.0675 9.89131
1 -0.197463 15.1709 11.4816
2 -0.194395 17.2034 11.8673
1 1.75863 16.9627 12.3248
1 -0.198519 17.1195 13.8589
2 1.72641 17.075 14.2679
1 1.72253 15.1643 14.6879
1 1.72415 17.1019 16.2257
2 1.72553 15.1873 16.6526
1 -0.202224 15.1239 17.0526
1 1.72827 15.3584 18.5801
2 -0.211625 15.069 19.0536
1 -0.208707 17.082 19.4622
1 -0.190712 15.1864 21.0394
2 -0.196048 17.0871 21.4269
1 1.72578 17.0976 21.8274
1 -0.195756 17.0898 23.4045
2 1.72509 17.0864 23.8035
1 1.72481 15.1703 24.2149
1 1.72525 17.0886 25.7844
2 1.72513 15.1689 26.1887
1 -0.194467 15.1683 26.5876
1 1.72535 15.1667 28.1653
2 -0.194701 19.0078 -0.0290674
1 -0.195493 20.929 0.37457
1 -0.196365 19.0115 1.94238
2 -0.197387 20.9261 2.35373
1 1.72442 20.9272 2.75909
1 -0.200955 20.9277 4.32605
2 1.71445 20.9277 4.73257
1 1.75197 19.0043 5.13523
1 1.60628 20.8964 6.67917
2 1.71562 18.9997 7.11083
1 -0.201047 18.991 7.53116
1 1.74713 19.0107 9.0476
2 -0.196203 19.003 9.59632
1 -0.198241 20.9386 9.88184
1 0.563053 19.0056 11.4365
2 -0.191499 20.81 11.8571
1 1.75862 21.0459 12.342
1 -0.216535 20.8795 13.8052
2 1.7296 20.9419 14.3588
1 1.73384 18.9874 14.6372
1 2.49163 20.9303 16.2095
2 1.72835 19.1184 16.6258
1 -0.230991 18.8864 17.0957
1 1.72515 19.046 18.6276
2 -0.197257 18.9898 19.0415
1 -0.200555 20.9192 19.4491
1 -0.193742 19.0027 21.0192
2 -0.194718 20.9212 21.4226
1 1.72579 20.9254 21.8225
1 -0.194872 20.9251 23.4006
2 1.72535 20.9265 23.8016
1 1.72519 19.0069 24.2044
1 1.72519 20.9266 25.7816
2 1.72524 19.0069 26.1836
1 -0.194954 19.0069 26.5849
1 1.72545 19.0065 28.1631
2 -0.194895 22.8472 -0.0245271
1 -0.195183 24.7667 0.377261
1 -0.195094 22.8463 1.95534
2 -0.196274 24.7669 2.3536
1 1.72479 24.7656 2.7594
1 -0.20022 24.7654 4.3257
2 1.71331 24.7685 4.73494
1 1.76402 22.8481 5.14824
1 1.60786 24.8018 6.68331
2 1.84175 22.8467 7.14508
1 -0.189043 22.8505 7.52698
1 1.70902 22.8522 9.12321
2 -0.197201 22.8451 9.49543
1 -0.201715 24.7657 9.90556
1 -0.197098 22.8321 11.4567
2 -0.196012 24.7494 11.8688
1 1.73492 24.8119 12.2864
1 -0.20068 24.6227 13.7779
2 1.72445 24.8753 14.2961
1 1.72274 22.8803 14.6712
1 1.75514 24.7287 16.2751
2 1.73202 22.7233 16.6403
1 -0.196285 22.8373 17.1467
1 1.74014 22.8101 18.6489
2 -0.194651 22.8448 19.0607
1 -0.191676 24.7623 19.4696
1 -0.194755 22.8407 21.0268
2 -0.195098 24.7633 21.4322
1 1.72595 24.7656 21.8242
1 -0.194786 24.7658 23.4036
2 1.72547 24.7665 23.8027
1 1.72522 22.8463 24.2039
1 1.72516 24.7663 25.7819
2 1.72493 22.8464 26.1838
1 -0.19501 22.8465 26.5858
1 1.72518 22.8466 28.1637
2 3.64508 -0.195144 -0.023762
1 3.64512 1.725 0.378405
1 3.64503 -0.194966 1.95597
2 3.64491 1.72485 2.35828
1 5.56516 1.72671 2.75928
1 3.6452 1.73119 4.33679
2 5.56434 1.72952 4.73891
1 5.55717 -0.18408 5.13117
1 5.56835 1.72833 6.71974
2 5.57331 -0.187191 7.12043
1 3.64527 -0.178436 7.51778
1 5.56315 -0.198125 9.10088
2 3.64491 -0.193897 9.50699
1 3.64514 1.72579 9.90587
1 3.6542 -0.182856 11.4999
2 3.64987 1.74065 11.8828
1 5.57687 1.71918 12.2792
1 3.68031 1.8453 13.8312
2 5.5727 1.73407 14.2683
1 5.58161 -0.192366 14.6647
1 5.56325 1.72443 16.2487
2 5.56581 -0.193141 16.6533
1 3.6681 -0.195608 17.1111
1 5.57775 -0.195634 18.6469
2 3.65664 -0.193308 19.0535
1 3.65687 1.72841 19.4518
1 3.64766 -0.192012 21.0272
2 3.64595 1.73255 21.4241
1 5.56597 1.72502 21.8216
1 3.64594 1.72634 23.4003
2 5.56547 1.72455 23.8016
1 5.56558 -0.195073 24.2037
1 5.56519 1.72221 25.7843
2 5.56504 -0.195866 26.1841
1 3.64513 -0.195652 26.5863
1 5.56491 -0.195149 28.1642
2 3.64528 3.64529 -0.0229835
1 3.64559 5.56518 0.378773
1 3.64523 3.64521 1.95647
2 3.64559 5.56533 2.35857
1 5.56532 5.56521 2.76075
1 3.64537 5.56493 4.33867
2 5.56519 5.56471 4.741
1 5.5654 3.64657 5.14299
1 5.5651 5.56539 6.72185
2 5.56562 3.64594 7.12347
1 3.64557 3.64593 7.52451
1 5.56553 3.64548 9.1032
2 3.64559 3.64704 9.50104
1 3.64582 5.56779 9.90486
1 3.6464 3.65184 11.4727
2 3.64734 5.56544 11.8877
1 5.56558 5.56459 12.29
1 3.64663 5.5639 13.8679
2 5.56637 5.56543 14.2687
1 5.58624 3.65261 14.6781
1 5.56587 5.56608 16.2468
2 5.56761 3.64639 16.6535
1 3.65447 3.65354 17.0548
1 5.56939 3.63871 18.6334
2 3.65255 3.64213 19.0377
1 3.64672 5.54831 19.4155
1 3.64867 3.65261 21.0114
2 3.64728 5.68245 21.3959
1 5.60049 5.44664 21.8591
1 3.6497 5.60464 23.3967
2 5.56795 5.55344 23.8079
1 5.56466 3.63921 24.2169
1 5.56462 5.56463 25.7833
2 5.5656 3.64317 26.1888
1 3.64535 3.64484 26.5875
1 5.56544 3.64478 28.1652
2 3.64575 7.48533 -0.0236576
1 3.64476 9.40525 0.378892
1 3.64517 7.48541 1.9564
2 3.64281 9.40546 2.35893
1 5.56244 9.40564 2.75808
1 3.64478 9.40275 4.33792
2 5.56283 9.40267 4.73623
1 5.56305 7.48137 5.1418
1 5.5666 9.39998 6.70819
2 5.56508 7.48499 7.12397
1 3.64551 7.4858 7.52621
1 5.56551 7.4852 9.10489
2 3.64518 7.48418 9.50649
1 3.6252 9.39655 9.91442
1 3.64677 7.48328 11.4883
2 3.64461 9.40479 11.8886
1 5.56291 9.3995 12.2908
1 3.6453 9.40668 13.8669
2 5.56553 9.40426 14.264
1 5.56235 7.48243 14.6687
1 5.56569 9.3998 16.2322
2 5.56241 7.48527 16.6446
1 3.64626 7.48912 17.0566
1 5.5872 7.48318 18.5826
2 3.64162 7.49036 19.1301
1 3.65942 9.42897 19.4245
1 4.40838 7.48651 20.9711
2 3.64186 9.29426 21.3949
1 5.60492 9.51985 21.8617
1 3.64568 9.36403 23.3934
2 5.56619 9.41688 23.808
1 5.57078 7.48527 24.2015
1 5.56391 9.40429 25.7846
2 5.56548 7.48486 26.1821
1 3.64583 7.48445 26.5866
1 5.56538 7.48523 28.164
2 3.64582 11.3254 -0.0226788
1 3.6476 13.2456 0.377213
1 3.64581 11.3252 1.95641
2 3.65222 13.2465 2.35696
1 5.5687 13.2456 2.76412
1 3.64952 13.2416 4.33777
2 5.5716 13.2449 4.74475
1 5.56655 11.3248 5.14155
1 5.56138 13.2454 6.72392
2 5.56336 11.3139 7.11784
1 3.63469 11.3338 7.51445
1 5.52789 11.2071 9.06872
2 3.63769 11.3159 9.50377
1 3.62985 13.2425 9.89959
1 3.64895 11.326 11.4841
2 3.64633 13.2434 11.8883
1 5.54586 13.2431 12.3441
1 3.63413 13.2464 13.88
2 5.5669 13.2454 14.2828
1 5.56538 11.3239 14.6748
1 5.57735 13.2458 16.2556
2 5.57175 11.3119 16.6455
1 3.65783 11.3729 17.0462
1 5.60724 11.199 18.5889
2 3.66207 11.4263 19.0558
1 4.51511 13.243 19.5075
1 3.64398 11.295 21.0328
2 3.65579 13.2392 21.3254
1 5.58877 13.2458 21.8832
1 3.65288 13.2443 23.4165
2 5.56707 13.246 23.8157
1 5.56637 11.328 24.2238
1 5.56432 13.2485 25.7879
2 5.56579 11.3263 26.1915
1 3.64606 11.3259 26.5882
1 5.56549 11.3249 28.1659
2 3.64512 15.1657 -0.0237575
1 3.64627 17.0862 0.376318
1 3.65158 15.1655 1.95421
2 3.64877 17.0852 2.35493
1 5.56446 17.0842 2.7554
1 3.64756 17.0838 4.33404
2 5.56265 17.0844 4.73375
1 5.56614 15.1644 5.14052
1 5.57228 17.0875 6.70609
2 5.5642 15.1764 7.1173
1 3.63466 15.158 7.51294
1 5.5289 15.2844 9.06736
2 3.64179 15.1739 9.50386
1 3.62309 17.0954 9.91675
1 3.67065 15.1551 11.4781
2 3.65186 17.0738 11.893
1 5.56749 17.0874 12.2929
1 3.65881 17.0858 13.8788
2 5.57143 17.0884 14.2678
1 5.56504 15.1662 14.6751
1 5.58693 17.0848 16.2342
2 5.57092 15.1773 16.6469
1 3.65289 15.1213 17.0544
1 5.60243 15.2973 18.5914
2 3.66081 15.0585 19.0573
1 3.65914 17.0809 19.4636
1 3.64708 15.1811 21.0395
2 3.64655 17.0861 21.4265
1 5.56853 17.0912 21.8252
1 3.64605 17.0896 23.4043
2 5.56611 17.0864 23.8029
1 5.56738 15.1691 24.2107
1 5.56469 17.0874 25.7832
2 5.56518 15.1679 26.1869
1 3.64534 15.1667 26.5868
1 5.56507 15.1669 28.1647
2 3.64473 19.0064 -0.0239811
1 3.64492 20.9264 0.378674
1 3.64547 19.0066 1.95556
2 3.6455 20.9262 2.36021
1 5.56599 20.9272 2.75935
1 3.64638 20.9247 4.34007
2 5.57722 20.9258 4.73481
1 5.55708 18.9996 5.12811
1 5.68411 20.8919 6.68338
2 5.57794 18.9989 7.11885
1 3.65743 18.9882 7.50668
1 5.56464 19.0098 9.10144
2 3.64495 19.0064 9.50407
1 3.63823 20.9007 9.95857
1 3.663 18.995 11.5027
2 3.652 20.9367 11.8925
1 5.58227 20.9302 12.2855
1 3.68136 20.9201 13.8297
2 5.57255 20.9237 14.2765
1 5.56826 19.0094 14.6765
1 5.58418 20.9237 16.2634
2 5.57252 18.9974 16.6582
1 3.68012 18.886 17.0951
1 5.57705 19.0164 18.6471
2 3.6473 18.9899 19.0414
1 3.65153 20.9248 19.4363
1 3.64382 19.0055 21.0162
2 3.64512 20.9245 21.4169
1 5.56458 20.9262 21.8219
1 3.64532 20.9258 23.3993
2 5.56539 20.9263 23.8016
1 5.5659 19.0066 24.2041
1 5.56484 20.9264 25.7816
2 5.56437 19.0064 26.1839
1 3.64509 19.0067 26.5858
1 5.56366 19.0064 28.1644
2 3.64467 22.8464 -0.0235308
1 3.64506 24.7666 0.378848
1 3.64506 22.8464 1.95633
2 3.64495 24.7667 2.36071
1 5.56474 24.7656 2.75959
1 3.64518 24.7712 4.34182
2 5.57704 24.7681 4.73526
1 5.52713 22.8468 5.1499
1 5.68314 24.8017 6.68371
2 5.44916 22.8462 7.14558
1 3.6461 23.6022 7.56621
1 5.58377 22.8458 9.12519
2 3.64666 22.846 9.40897
1 3.64494 24.7913 9.9544
1 3.66553 22.8501 11.4609
2 3.65142 24.755 11.8894
1 5.58065 24.7763 12.2846
1 3.6845 24.6486 13.8298
2 5.57525 24.7588 14.2699
1 5.58379 22.837 14.6833
1 5.5828 24.7759 16.2431
2 5.57535 22.8544 16.6581
1 3.68833 22.9553 17.1001
1 5.57924 22.8388 18.6488
2 3.65328 22.8586 19.047
1 3.65296 24.7694 19.4608
1 3.64618 22.8446 21.0218
2 3.64575 24.7671 21.4273
1 5.56595 24.7665 21.8227
1 3.64564 24.7663 23.4017
2 5.56574 24.7665 23.8019
1 5.56543 22.8463 24.2038
1 5.56463 24.7667 25.7814
2 5.56434 22.8467 26.1837
1 3.64485 22.8464 26.5859
1 5.5635 22.8463 28.1642
2 7.48521 -0.194481 -0.0241548
1 7.48556 1.72546 0.378194
1 7.48379 -0.193613 1.95507
2 7.48525 1.72535 2.3582
1 9.4051 1.72464 2.76047
1 7.48508 1.72528 4.33737
2 9.4044 1.72571 4.7401
1 9.40612 -0.195059 5.14751
1 9.38668 1.73537 6.71421
2 9.39919 -0.185056 7.12699
1 7.49086 -0.171022 7.53313
1 9.39573 -0.204047 9.11773
2 7.48114 -0.194722 9.5089
1 7.48451 1.72628 9.90709
1 7.48762 -0.194638 11.4861
2 7.48576 1.72494 11.8854
1 9.39342 1.72307 12.28
1 7.48839 1.72912 13.8683
2 9.40572 1.72535 14.2724
1 9.4082 -0.193715 14.6766
1 9.38945 1.72494 16.2592
2 9.39821 -0.203924 16.6566
1 7.48389 -0.196761 17.0578
1 9.39493 -0.186886 18.6463
2 7.48566 -0.194633 19.0401
1 7.4806 1.72358 19.4395
1 7.48555 -0.19561 21.0196
2 7.48645 1.72311 21.4193
1 9.40659 1.72307 21.8224
1 7.48526 1.72555 23.3991
2 9.40568 1.72547 23.8013
1 9.40583 -0.192773 24.2019
1 9.40528 1.72538 25.7816
2 9.40444 -0.193165 26.1833
1 7.4842 -0.192823 26.5868
1 9.40534 -0.195219 28.163
2 7.48568 3.64527 -0.023271
1 7.48527 5.56499 0.378637
1 7.48561 3.64531 1.95657
2 7.48553 5.56528 2.35881
1 9.40582 5.5653 2.76084
1 7.48494 5.56415 4.33846
2 9.40543 5.56421 4.74062
1 9.40588 3.64725 5.14082
1 9.40358 5.56346 6.72155
2 9.40418 3.64677 7.1228
1 7.48417 3.64813 7.52656
1 9.40457 3.64548 9.10191
2 7.48524 3.64584 9.50593
1 7.48532 5.56627 9.90744
1 7.4836 3.647 11.4852
2 7.48451 5.56704 11.8869
1 9.40144 5.56086 12.2912
1 7.48499 5.56736 13.8666
2 9.3998 5.56671 14.2723
1 9.40833 3.64445 14.6769
1 9.38498 5.57294 16.2464
2 9.39807 3.65375 16.6567
1 7.48404 3.64921 17.0575
1 9.39487 3.63758 18.6458
2 7.48296 3.64376 19.0381
1 7.48192 5.56611 19.442
1 7.50447 3.63668 21.0125
2 7.49287 5.55604 21.4224
1 9.40797 5.56154 21.8232
1 7.49638 5.57324 23.4119
2 9.40958 5.56607 23.804
1 9.40588 3.64486 24.204
1 9.4068 5.56493 25.7833
2 9.40547 3.64505 26.184
1 7.48581 3.64496 26.5871
1 9.40552 3.64519 28.1641
2 7.48514 7.48496 -0.023985
1 7.48611 9.4047 0.377796
1 7.4857 7.48482 1.95536
2 7.48452 9.40437 2.35718
1 9.4062 9.4085 2.76241
1 7.47649 9.38485 4.33145
2 9.39678 9.3962 4.73952
1 9.40017 7.47964 5.14086
1 9.41086 9.38943 6.71993
2 9.40228 7.48049 7.12431
1 7.48424 7.48555 7.52688
1 9.40494 7.48352 9.10596
2 7.4853 7.49105 9.50496
1 7.48526 9.41102 9.91644
1 7.48502 7.48704 11.483
2 7.48522 9.40357 11.8898
1 9.40546 9.40368 12.2945
1 7.48464 9.40064 13.8711
2 9.40128 9.40501 14.2738
1 9.40157 7.48741 14.6728
1 9.40625 9.40539 16.2538
2 9.40815 7.48686 16.6523
1 7.49472 7.48805 17.0456
1 9.40644 7.48248 18.633
2 7.48597 7.48337 19.0373
1 7.50466 9.39496 19.4484
1 7.50173 7.48303 21.0265
2 7.49503 9.41381 21.423
1 9.4095 9.40995 21.8241
1 7.49728 9.39766 23.4124
2 9.41053 9.40419 23.804
1 9.41182 7.48525 24.2055
1 9.4069 9.40519 25.783
2 9.40523 7.4853 26.1841
1 7.48535 7.48519 26.5864
1 9.40461 7.48355 28.1636
2 7.48578 11.3255 -0.0238447
1 7.48092 13.2457 0.375648
1 7.47981 11.3229 1.95407
2 7.48375 13.2456 2.35749
1 9.38623 13.2455 2.73809
1 7.49135 13.2455 4.33172
2 9.52188 13.2455 4.72035
1 9.28623 11.2904 5.179
1 9.4476 13.2458 6.71787
2 9.39407 11.3123 7.12317
1 7.47951 11.3657 7.54593
1 9.43923 11.2077 9.06727
2 7.48354 11.4418 9.53334
1 8.24104 13.2457 9.95165
1 7.48458 11.3069 11.5102
2 7.48557 13.2456 11.7965
1 9.42518 13.248 12.3438
1 7.48572 13.2457 13.8734
2 9.40293 13.246 14.2813
1 9.40697 11.3235 14.6779
1 9.41058 13.2459 16.2519
2 9.41165 11.3261 16.6536
1 7.49951 11.3338 17.0415
1 9.40945 11.3204 18.6324
2 7.49528 11.3168 19.0318
1 7.5078 13.2481 19.4285
1 7.50202 11.3354 21.0072
2 7.48582 13.2477 21.4184
1 9.40646 13.2478 21.8222
1 7.49852 13.2453 23.4128
2 9.41037 13.2453 23.803
1 9.40764 11.3248 24.2037
1 9.40667 13.2454 25.7826
2 9.40459 11.3251 26.1815
1 7.485 11.3254 26.5861
1 9.40336 11.3251 28.1582
2 7.48535 15.1657 -0.0241621
1 7.48542 17.0862 0.377476
1 7.47992 15.1681 1.95396
2 7.48468 17.0869 2.35675
1 9.40375 17.083 2.7612
1 7.47657 17.1057 4.33161
2 9.39488 17.0939 4.73947
1 9.28497 15.1997 5.18016
1 9.41519 17.1009 6.71939
2 9.3966 15.1791 7.12485
1 7.48117 15.125 7.5465
1 9.44117 15.2833 9.06921
2 7.48372 15.0496 9.53347
1 7.48476 17.0793 9.9174
1 7.48603 15.1841 11.5104
2 7.48723 17.0872 11.89
1 9.40865 17.0915 12.2928
1 7.48816 17.0913 13.8708
2 9.40528 17.0863 14.2723
1 9.40712 15.1683 14.6782
1 9.40692 17.0872 16.2528
2 9.41135 15.1659 16.654
1 7.49948 15.1552 17.0435
1 9.40928 15.1709 18.6334
2 7.4934 15.1757 19.0325
1 7.50828 17.0952 19.4454
1 7.48151 15.1652 21.0134
2 7.48632 17.0863 21.4197
1 9.40546 17.0862 21.8215
1 7.48606 17.0859 23.399
2 9.40487 17.0858 23.8005
1 9.4076 15.1646 24.2016
1 9.38487 17.0777 25.775
2 9.40368 15.1644 26.1811
1 7.48353 15.1641 26.5861
1 9.40345 15.1667 28.1576
2 7.48061 19.007 -0.0223029
1 7.4796 20.9262 0.379154
1 7.48439 19.0062 1.95595
2 7.48858 20.9258 2.35477
1 9.40902 20.9271 2.76101
1 7.49093 20.929 4.32542
2 9.40959 20.9274 4.74162
1 9.40092 19.01 5.13988
1 9.38628 20.9194 6.71634
2 9.40653 19.0083 7.12595
1 7.49333 18.9832 7.53351
1 9.40436 19.0088 9.11103
2 7.48469 18.9989 9.50638
1 7.49145 20.9225 9.90923
1 7.48655 19.0028 11.4837
2 7.49017 20.9245 11.8867
1 9.40458 20.9254 12.2914
1 7.4889 20.9233 13.8699
2 9.40521 20.9253 14.2718
1 9.40531 19.006 14.6743
1 9.40563 20.9258 16.252
2 9.4063 19.0063 16.6536
1 7.48857 19.0019 17.058
1 9.4078 19.0084 18.6333
2 7.49085 19.0091 19.0388
1 7.49086 20.9265 19.4398
1 7.48447 19.0075 21.0198
2 7.48128 20.9268 21.418
1 9.39467 20.926 21.8093
1 7.48564 20.9265 23.3992
2 9.40574 20.9263 23.8016
1 9.40882 19.0072 24.2062
1 9.38888 20.9263 25.7888
2 9.39724 18.9974 26.1866
1 7.48214 19.0024 26.587
1 9.39342 19.0152 28.1753
2 7.48065 22.8455 -0.0221715
1 7.48357 24.767 0.376368
1 7.48219 22.8457 1.95632
2 7.48288 24.7669 2.35219
1 9.39532 24.7662 2.74554
1 7.4907 24.7658 4.32589
2 9.40365 24.767 4.7421
1 9.40733 22.8475 5.14598
1 9.39011 24.7663 6.72953
2 9.39233 22.8379 7.1253
1 7.47656 22.843 7.53384
1 9.39051 22.8543 9.11443
2 7.48246 22.847 9.50967
1 7.48587 24.769 9.91065
1 7.49112 22.8462 11.4898
2 7.48952 24.7674 11.8868
1 9.40291 24.7678 12.2893
1 7.48927 24.7627 13.8679
2 9.40356 24.7656 14.2708
1 9.40587 22.8433 14.6723
1 9.38595 24.7581 16.2453
2 9.40561 22.8445 16.6532
1 7.4881 22.8483 17.0588
1 9.4064 22.8465 18.6338
2 7.49072 22.8453 19.0391
1 7.4875 24.7657 19.4397
1 7.48524 22.8471 21.0183
2 7.48501 24.7665 21.419
1 9.40437 24.7656 21.8214
1 7.485 24.766 23.3986
2 9.40399 24.7671 23.8007
1 9.40868 22.8455 24.2063
1 9.38475 24.7753 25.7753
2 9.3972 22.8553 26.1865
1 7.4821 22.8501 26.587
1 9.39383 22.8387 28.1753
2 11.3251 -0.193293 -0.0266208
1 11.3254 1.72663 0.37704
1 11.3254 -0.189175 1.95187
2 11.3264 1.72615 2.35885
1 13.2454 1.73031 2.75984
1 11.3227 1.73136 4.33707
2 13.2493 1.72666 4.74079
1 13.2399 -0.174369 5.12111
1 13.2462 1.71999 6.71325
2 13.2477 -0.306958 7.10252
1 11.2885 -0.0716694 7.56369
1 13.2426 -0.2329 9.10024
2 11.3234 -0.184664 9.50954
1 11.3271 1.72912 9.9158
1 11.3184 -0.196378 11.48
2 11.3225 1.72437 11.8811
1 13.2363 1.71574 12.2717
1 11.3033 1.73159 13.8171
2 13.2412 1.73451 14.3649
1 13.2105 -0.206612 14.6481
1 13.9994 1.722 16.2087
2 13.2473 -0.0791259 16.6314
1 11.2904 -0.314079 17.0942
1 13.2337 -0.158101 18.6389
2 11.3204 -0.20636 19.0438
1 11.3185 1.72569 19.4366
1 11.325 -0.195131 21.0189
2 11.3255 1.72507 21.4172
1 13.2442 1.72505 21.8233
1 11.3254 1.72494 23.3993
2 13.2444 1.72311 23.8032
1 13.2452 -0.196879 24.2072
1 13.2449 1.72395 25.7827
2 13.2451 -0.200948 26.1851
1 11.3253 -0.194266 26.5843
1 13.2445 -0.19421 28.1623
2 11.3255 3.64543 -0.0237382
1 11.3255 5.56451 0.378916
1 11.3248 3.64553 1.95623
2 11.3263 5.56542 2.35942
1 13.2449 5.56429 2.76235
1 11.3258 5.56488 4.33908
2 13.2491 5.56251 4.74086
1 13.2447 3.64208 5.14387
1 13.246 5.56059 6.71578
2 13.2447 3.63902 7.12412
1 11.3247 3.64669 7.52341
1 13.2377 3.63954 9.10448
2 11.3225 3.64608 9.50284
1 11.328 5.56699 9.90999
1 11.3038 3.64191 11.477
2 11.3174 5.55691 11.8915
1 13.2104 5.45189 12.3255
1 11.3109 5.58117 13.878
2 13.2436 5.55832 14.2754
1 13.2265 3.66695 14.6687
1 13.2401 5.56219 16.2454
2 13.2414 3.52846 16.6353
1 11.289 3.76335 17.0951
1 13.2424 3.60225 18.6279
2 11.323 3.65703 19.0433
1 11.326 5.57112 19.4517
1 11.3271 3.64539 21.0182
2 11.3257 5.56708 21.4232
1 13.2438 5.5661 21.8201
1 11.3261 5.56543 23.4005
2 13.241 5.56408 23.8028
1 13.2412 3.64267 24.2055
1 13.2446 5.56541 25.7821
2 13.2448 3.64475 26.1839
1 11.3253 3.6451 26.586
1 13.2446 3.64545 28.1634
2 11.3247 7.48149 -0.0251654
1 11.3249 9.39458 0.366231
1 11.3251 7.4854 1.95621
2 11.3252 9.40564 2.35805
1 13.2426 9.40848 2.76082
1 11.3251 9.38926 4.34482
2 13.2518 9.39908 4.74112
1 13.2488 7.4822 5.14259
1 13.2383 9.39579 6.72579
2 13.2459 7.48036 7.11596
1 11.3143 7.47952 7.51593
1 13.222 7.4812 9.05497
2 11.3254 7.48383 9.50738
1 11.3467 9.39495 9.91908
1 11.3082 7.48327 11.4961
2 11.319 9.41387 11.8932
1 13.2103 9.5235 12.3303
1 11.3155 9.39838 13.8823
2 13.2444 9.41585 14.2787
1 13.2392 7.48445 14.6722
1 13.2458 9.40557 16.2538
2 13.2401 7.47967 16.6513
1 11.3248 7.48597 17.0554
1 13.2423 7.48849 18.6322
2 11.325 7.48596 19.0368
1 11.326 9.40544 19.4393
1 11.3257 7.48845 21.0194
2 11.3278 9.40664 21.42
1 13.2466 9.40591 21.8256
1 11.3277 9.40565 23.4007
2 13.2508 9.40568 23.8034
1 13.2435 7.48605 24.2032
1 13.246 9.40554 25.7808
2 13.2448 7.48561 26.1835
1 11.3255 7.48387 26.5849
1 13.2429 7.48416 28.166
2 11.3248 11.3272 -0.033802
1 11.325 13.2455 0.37336
1 11.3252 11.3048 1.90408
2 11.3249 13.245 2.45127
1 13.2629 13.2453 2.73626
1 11.3236 14.0005 4.29519
2 13.1285 13.2454 4.71725
1 13.3632 11.2922 5.17832
1 13.2076 13.2424 6.71079
2 13.2609 11.3236 7.12604
1 11.3336 11.3288 7.50828
1 13.2374 11.3083 9.09583
2 11.3298 11.3163 9.50026
1 11.3417 13.2482 9.89834
1 11.3023 11.3356 11.4769
2 11.3242 13.2479 11.888
1 13.2398 13.247 12.3039
1 11.3341 13.2453 13.8835
2 13.2478 13.2456 14.278
1 13.2482 11.3298 14.6881
1 13.247 13.2484 16.2565
2 13.2454 11.3272 16.659
1 11.3272 11.3259 17.0567
1 13.2444 11.3286 18.6346
2 11.3262 11.3254 19.0371
1 11.3256 13.2458 19.4384
1 11.3261 11.326 21.0164
2 11.325 13.2458 21.4183
1 13.2433 13.246 21.8193
1 11.3265 13.2457 23.3989
2 13.2438 13.2481 23.8018
1 13.2456 11.3262 24.2026
1 13.2462 13.2461 25.7815
2 13.2463 11.3253 26.1813
1 11.3258 11.3278 26.5836
1 13.245 11.3251 28.1605
2 11.3256 15.1635 -0.0341342
1 11.3273 17.0903 0.378772
1 11.3258 15.1828 1.90552
2 11.3246 17.0824 2.36213
1 13.2445 17.0864 2.76643
1 11.3168 17.0825 4.34017
2 13.2456 17.0887 4.74781
1 13.3561 15.1989 5.17778
1 13.2406 17.0895 6.74486
2 13.2601 15.1626 7.12846
1 11.3383 15.162 7.51468
1 13.2548 15.1668 9.09885
2 11.3388 15.1755 9.50274
1 11.3455 17.0941 9.9151
1 11.3227 15.165 11.4832
2 11.3267 17.0851 11.8905
1 13.2408 17.0845 12.3059
1 11.3225 17.0828 13.8721
2 13.2435 17.0845 14.2771
1 13.2471 15.1662 14.6752
1 13.246 17.0841 16.255
2 13.2464 15.1661 16.655
1 11.3275 15.1659 17.0562
1 13.246 15.1657 18.6347
2 11.3267 15.1657 19.0365
1 11.3264 17.085 19.4374
1 11.3252 15.1657 21.0161
2 11.3255 17.0858 21.418
1 13.2456 17.0811 21.8179
1 11.3232 17.0806 23.3966
2 13.2457 17.0842 23.7994
1 13.2438 15.1688 24.2072
1 13.2457 17.0923 25.7733
2 13.2465 15.172 26.1828
1 11.3256 15.1635 26.5828
1 13.2471 15.1652 28.1569
2 11.3239 18.9979 -0.0203962
1 11.3166 20.9257 0.371023
1 11.3206 19.0025 1.95471
2 11.3242 20.9259 2.35454
1 13.2271 20.9225 2.73546
1 11.3269 20.9195 4.32846
2 13.3621 20.9279 4.71737
1 13.1319 18.9778 5.18526
1 13.2839 20.9329 6.70814
2 13.2319 19.0157 7.13231
1 11.3175 19.0113 7.5387
1 13.2376 19.0311 9.09921
2 11.3233 19.008 9.51181
1 11.3229 20.922 9.92189
1 11.3249 19.0048 11.4921
2 11.3208 20.9256 11.8923
1 13.2346 20.9354 12.2809
1 11.3219 20.92 13.8688
2 13.2369 20.9168 14.2702
1 13.225 18.9979 14.681
1 13.2494 20.9256 16.2516
2 13.2447 19.0056 16.6556
1 11.3256 19.0061 17.0563
1 13.2451 19.0064 18.6349
2 11.3254 19.005 19.0342
1 11.3262 20.9254 19.4369
1 11.3251 19.0035 21.0107
2 11.3273 20.9252 21.4091
1 13.2454 20.9255 21.8172
1 11.3047 20.926 23.3471
2 13.2458 20.9263 23.8944
1 13.2454 18.9874 24.1797
1 14.0013 20.9262 25.739
2 13.2448 19.1221 26.1584
1 11.2892 18.8893 26.6208
1 13.2442 19.0456 28.1501
2 11.3234 22.8575 -0.0209935
1 11.3293 24.7729 0.388019
1 11.3206 22.8472 1.94951
2 11.3267 24.7695 2.35239
1 13.2438 24.7638 2.75812
1 11.2974 24.7856 4.28633
2 13.2345 24.7717 4.83782
1 13.124 22.8536 5.1547
1 14.0004 24.7645 6.67458
2 13.2314 22.9648 7.1065
1 11.2863 22.7287 7.57149
1 13.2438 22.8838 9.09654
2 11.321 22.8348 9.51512
1 11.3167 24.7651 9.90104
1 11.3178 22.8452 11.4864
2 11.3134 24.7666 11.8806
1 13.2164 24.7621 12.2544
1 11.3161 24.7604 13.864
2 13.2239 24.7648 14.2635
1 13.2119 22.8395 14.6757
1 13.2505 24.7718 16.239
2 13.2444 22.8513 16.6563
1 11.3256 22.8466 17.0557
1 13.2338 22.8476 18.6466
2 11.3215 22.8468 19.036
1 11.3232 24.7621 19.4514
1 11.3236 22.8456 21.0146
2 11.3251 24.7647 21.4232
1 13.2448 24.7707 21.8205
1 11.3225 24.7719 23.3982
2 13.2454 24.7687 23.8008
1 13.2453 22.8652 24.1798
1 13.2452 24.7606 25.7739
2 13.2447 22.7306 26.1584
1 11.2891 22.9642 26.6214
1 13.2435 22.8081 28.1504
2 15.1657 -0.190321 -0.0291952
1 15.1618 1.72622 0.373174
1 15.1609 -0.193037 1.94933
2 15.1639 1.72475 2.35594
1 17.0692 1.72487 2.74052
1 15.1673 1.71612 4.3246
2 17.1924 1.71043 4.7213
1 16.9562 -0.230646 5.19165
1 17.1489 1.72678 6.71745
2 17.0793 -0.187456 7.13773
1 15.1917 -0.0715015 7.57608
1 17.0954 -0.202301 9.11827
2 15.1652 -0.18082 9.51378
1 15.1639 1.73601 9.91988
1 15.1614 -0.190422 11.475
2 15.1638 1.74489 11.877
1 17.0944 1.68538 12.2891
1 15.1487 1.84658 13.7872
2 17.0874 1.60712 14.2918
1 17.8371 -0.189401 14.7249
1 17.1014 1.73806 16.2718
2 17.0858 -0.201703 16.5677
1 15.1774 -0.312348 17.1435
1 17.0857 -0.183433 18.6657
2 15.1649 -0.208083 19.0577
1 15.1472 1.71834 19.4488
1 15.1646 -0.197451 21.0245
2 15.1622 1.72521 21.4213
1 17.0743 1.70014 21.8305
1 15.1619 1.72612 23.4023
2 17.0845 1.72314 23.8028
1 17.0847 -0.194054 24.2021
1 17.0862 1.72179 25.7837
2 17.0856 -0.194835 26.1808
1 15.164 -0.19334 26.5817
1 17.0834 -0.195699 28.1556
2 15.1648 3.64568 -0.0247916
1 15.1609 5.56527 0.375355
1 15.1541 3.64496 1.95181
2 15.1621 5.56587 2.35624
1 17.0638 5.55972 2.73563
1 15.1641 5.5785 4.32652
2 17.1878 5.57727 4.71817
1 16.8961 3.64555 5.19466
1 17.1305 5.57074 6.71748
2 17.0697 3.64668 7.12912
1 15.1568 3.64211 7.54103
1 17.0871 3.64044 9.10177
2 15.1625 3.64751 9.50474
1 15.1653 5.55067 9.88218
1 15.1659 3.66361 11.4654
2 15.1654 5.68171 11.8654
1 17.1155 5.44506 12.324
1 15.1678 5.61008 13.861
2 17.0862 5.54851 14.2754
1 17.0827 3.63146 14.6915
1 17.0998 5.57149 16.2451
2 17.0926 3.64093 16.6515
1 15.1837 3.77907 17.0817
1 17.052 3.5178 18.6009
2 15.1593 3.64769 19.0388
1 15.1488 5.57071 19.4443
1 15.1672 3.64693 21.0162
2 15.1683 5.56645 21.421
1 17.0633 5.57111 21.8822
1 15.1465 5.54525 23.4044
2 17.0742 5.55771 23.8171
1 17.0741 3.63708 24.2121
1 17.0902 5.55482 25.7986
2 17.0845 3.63969 26.1849
1 15.1626 3.64414 26.5845
1 17.0805 3.64322 28.1574
2 15.1632 7.48513 -0.0200399
1 15.1656 9.40573 0.378279
1 15.1594 7.48787 1.95348
2 15.1674 9.40539 2.35765
1 17.0908 9.40108 2.76377
1 15.1646 9.40604 4.32559
2 17.0836 9.40959 4.74212
1 16.9526 7.52281 5.18743
1 17.0957 9.42161 6.72839
2 17.0706 7.4909 7.12434
1 15.1594 7.48467 7.53841
1 17.1034 7.48604 9.05798
2 15.163 7.48606 9.60195
1 15.1621 9.42141 9.88808
1 15.9219 7.48497 11.4448
2 15.1663 9.28733 11.8683
1 17.1205 9.51831 12.3289
1 15.165 9.36638 13.8634
2 17.0869 9.42049 14.2722
1 17.0885 7.4886 14.6663
1 17.0823 9.41351 16.2378
2 17.081 7.49893 16.6383
1 15.1509 7.47786 17.0392
1 17.0406 7.60224 18.582
2 15.1568 7.49464 19.0329
1 15.141 9.41436 19.4422
1 15.1614 7.48545 21.0149
2 15.1609 9.40771 21.4189
1 17.0577 9.42918 21.8071
1 15.1685 9.40481 23.3941
2 17.2033 9.40726 23.7801
1 16.9621 7.45587 24.2469
1 17.1243 9.40758 25.7763
2 17.0721 7.48555 26.1901
1 15.1579 7.48712 26.5979
1 17.0805 7.48827 28.1601
2 15.1637 11.3259 -0.020239
1 15.1695 13.2457 0.375299
1 15.1713 11.3229 1.95376
2 15.1657 13.2448 2.35524
1 17.0804 13.2471 2.75985
1 15.1562 13.2461 4.32594
2 17.0775 13.2482 4.73206
1 17.0811 11.3189 5.1296
1 17.0866 13.2261 6.66931
2 17.0876 11.3311 7.12595
1 15.1736 11.3354 7.53872
1 17.0885 11.3163 9.11705
2 15.1586 11.3199 9.5134
1 15.0492 13.209 9.95152
1 15.1736 11.3063 11.4937
2 15.1537 13.2383 11.8971
1 17.0855 13.2416 12.287
1 15.1659 13.2464 13.87
2 17.0859 13.2474 14.2687
1 17.084 11.3351 14.6828
1 17.0849 13.25 16.2531
2 17.0831 11.3289 16.6554
1 15.1644 11.3257 17.0562
1 17.0826 11.3278 18.6301
2 15.1646 11.3278 19.0364
1 15.1663 13.2472 19.4376
1 15.1585 11.3318 21.0155
2 15.1651 13.2478 21.418