1766
Atoms. Timestep: 536
2 -0.169546 -0.141637 0.254955
1 -0.168034 1.74583 0.621834
1 -0.170131 -0.171338 2.18927
2 -0.16123 1.75294 2.57278
1 1.74936 1.7514 2.96085
1 -0.164585 1.74488 4.52623
2 1.74533 1.74573 4.91156
1 1.73982 -0.17527 5.30599
1 1.75076 1.75944 6.86723
2 1.79713 -0.100738 7.24147
1 -0.152139 -0.289899 7.64595
1 1.72095 -0.268207 9.3076
2 -0.249979 -0.250367 9.57326
1 -0.0321149 -0.0754541 11.4698
2 -0.208656 1.79593 12.0689
1 1.73577 1.63622 12.2904
1 -0.166009 1.74042 13.9134
2 1.74861 1.7736 14.2935
1 1.74051 -0.17198 14.5843
1 1.74884 1.75767 16.2403
2 1.78908 -0.129203 16.5886
1 -0.169008 -0.300003 16.9859
1 1.73719 -0.166333 18.5543
2 -0.17021 -0.13024 18.9735
1 -0.169369 1.79508 19.3211
1 -0.169206 -0.167654 20.9059
2 -0.168972 1.74604 21.2964
1 1.74617 1.74606 21.6734
1 -0.166987 1.7456 23.2446
2 1.74507 1.72735 23.631
1 1.73624 -0.276198 24.1221
1 1.74615 1.79786 25.5732
2 1.77747 0.0413322 26.007
1 -0.121707 -0.338793 26.3275
1 1.74314 -0.200049 27.8986
2 -0.129209 3.61864 0.229342
1 -0.267318 5.58036 0.623706
1 -0.13316 3.68982 2.18919
2 -0.286911 5.55002 2.55213
1 -0.0753677 5.70692 4.45742
2 1.79586 5.54233 5.04982
1 1.74752 3.66677 5.28331
1 1.74132 5.58174 6.89635
2 1.75329 3.66629 7.25023
1 -0.164514 3.6514 7.66122
1 1.73292 3.61948 9.21368
2 -0.115726 3.77677 9.56506
1 -0.300843 5.60446 9.96985
1 -0.177733 3.58565 11.4545
2 -0.130349 5.56267 11.9502
1 1.778 5.62773 12.3156
1 -0.163417 5.57718 13.8858
2 1.7485 5.59551 14.2978
1 1.74404 3.67177 14.6153
1 1.74285 5.53496 16.3166
2 1.72783 3.63562 16.448
1 -0.154061 3.67551 17.1581
2 -0.241597 3.627 19.0052
1 -0.0315157 5.5123 19.2956
1 -0.161381 3.66888 20.8692
2 -0.201304 5.58208 21.3155
1 1.74536 5.576 21.5992
1 -0.166501 5.57803 23.2423
2 1.74749 5.5792 23.61
1 1.74641 3.66461 24.0133
1 1.74847 5.58089 25.5785
2 1.74608 3.6772 25.971
1 -0.16773 3.66814 26.3624
1 1.75322 3.66282 27.9278
2 -0.129097 7.53178 0.249666
1 -0.170913 9.38675 0.625121
1 -0.131838 7.46441 2.26765
2 -0.17564 9.45998 2.5492
1 1.73964 9.40503 2.96358
1 -0.172504 9.29145 4.53211
2 1.78942 9.45571 4.9126
1 1.62306 7.48524 5.26969
1 1.73943 9.40798 6.8598
2 1.77513 7.49877 7.27467
1 -0.169167 7.49004 7.57094
1 1.76254 7.49961 9.2226
2 -0.126032 7.5428 9.5707
1 -0.160901 9.41997 9.9841
1 -0.17151 7.48872 11.5396
2 -0.21638 9.37015 11.9336
1 1.7739 9.50944 12.2736
1 -0.162017 9.41914 13.8922
2 1.70772 9.33599 14.1499
1 1.74796 7.5643 14.7385
2 1.74815 7.37007 16.6135
1 -0.138881 7.53664 16.9923
1 1.74533 7.42561 18.5542
2 -0.213635 7.52202 18.9501
1 -0.168457 9.38723 19.3401
1 -0.166572 7.4864 20.8922
2 -0.172878 9.42827 21.2865
1 1.74283 9.41587 21.6771
1 -0.172486 9.41687 23.2378
2 1.74709 9.41157 23.6305
1 1.74651 7.495 24.0164
1 1.74412 9.41221 25.5852
2 1.74815 7.49309 25.9703
1 -0.167244 7.49294 26.3652
1 1.75213 7.49614 27.9269
2 -0.177746 11.1792 0.198475
1 -0.173628 11.4221 2.09514
2 -0.177457 13.237 2.7137
1 1.73823 13.247 2.94304
1 -0.173896 13.2567 4.55855
2 1.75109 13.2491 4.90767
1 1.75216 11.3385 5.30346
1 1.70565 13.2705 6.87135
2 1.73796 11.3338 7.27178
1 -0.169329 11.3332 7.63722
1 1.75237 11.3243 9.28343
2 -0.199904 11.3262 9.56678
1 -0.165597 13.2457 9.96315
1 -0.0567649 11.3226 11.5502
2 -0.205964 13.2414 11.907
1 1.74565 13.114 12.3199
1 -0.168889 13.3665 13.8943
2 1.75046 13.2712 14.2934
1 1.87867 11.2377 14.6585
1 1.74692 13.2755 16.2142
2 1.71857 11.4831 16.6508
1 -0.14459 11.3048 17.0059
1 1.71986 11.357 18.5614
2 -0.174238 11.1793 18.9248
1 -0.171305 11.4192 20.8184
2 -0.16985 13.2467 21.4269
1 1.73802 13.2469 21.6604
1 -0.169965 13.2457 23.2755
2 1.74738 13.2457 23.6297
1 1.74655 11.3291 24.0154
1 1.7472 13.2391 25.5868
2 1.74768 11.3249 25.9686
1 -0.174752 11.3467 26.3788
1 1.71639 11.3734 27.9341
2 -0.175857 15.3011 0.236444
1 -0.173751 17.1718 0.608227
1 -0.170532 15.0553 2.1146
2 -0.175301 16.8933 2.43945
1 1.5926 17.1271 3.0485
2 1.9443 17.0766 4.95697
1 1.68189 15.1976 5.29959
1 1.6767 17.0408 6.92813
2 1.90479 15.1278 7.19826
1 1.64036 15.2969 9.12953
2 -0.216219 15.1353 9.75523
1 -0.0475835 17.1766 10.0464
1 -0.162181 15.1255 11.6278
2 -0.164161 16.9153 11.9594
1 1.71822 17.121 12.2365
1 -0.170941 16.9765 13.8795
2 1.79094 17.1217 14.2536
1 1.62047 15.1777 14.6499
1 1.74634 17.0676 16.2183
2 1.7998 15.1698 16.6377
1 -0.169927 15.1407 16.9447
1 1.6878 15.1145 18.5731
2 -0.177454 15.3195 18.8997
1 -0.169563 17.1039 19.3514
1 -0.170071 15.072 20.814
2 -0.170178 17.062 21.3083
1 1.74363 17.0741 21.6709
1 -0.16181 17.0731 23.3115
2 1.77886 17.0837 23.6065
1 1.74064 15.1644 24.0203
1 1.62044 17.076 25.5908
2 1.78389 15.1213 25.9684
1 -0.173904 15.2807 26.3669
1 1.71074 15.1287 27.935
2 -0.209868 18.9985 0.123016
1 -0.040071 20.8346 0.694932
2 -0.198959 21.0702 2.62411
1 1.71712 20.8635 2.86699
1 -0.168961 20.8846 4.50542
2 1.71741 20.9103 4.86838
1 1.70877 18.9591 5.28307
1 1.88223 20.9021 6.86555
2 1.70923 18.9818 7.22485
1 -0.168276 18.9741 7.59557
1 1.74249 18.8765 9.22855
2 -0.182678 19.0495 9.41652
1 -0.197478 20.8093 10.0978
2 -0.0678103 21.0793 11.9839
1 1.74046 20.8638 12.3072
1 -0.181204 20.8883 13.9157
2 1.776 20.9168 14.2505
1 1.73942 19.0033 14.657
1 1.62088 20.9108 16.2368
2 1.78603 18.9509 16.6095
1 -0.171303 19.1237 16.9869
1 1.74659 18.9995 18.5602
2 -0.170889 18.9701 18.9718
1 -0.16581 20.9087 19.2699
1 -0.166464 18.9971 20.9099
2 -0.15289 20.9067 21.2759
1 1.83883 20.9177 21.7731
1 -0.190344 20.9204 23.2361
2 1.58821 20.9312 23.6838
1 1.78511 19.027 24.0063
1 1.82519 20.8958 25.6366
2 1.79272 18.9973 25.9468
1 -0.162251 18.8813 26.3238
1 1.73517 19.1152 27.9512
2 -0.233691 22.8312 0.253334
1 -0.168486 24.7429 0.543443
1 -0.161689 22.8587 2.169
2 -0.164511 24.7514 2.57154
1 1.74725 24.7445 2.95533
1 -0.166125 24.7433 4.60122
2 1.77308 24.7443 4.90032
1 1.74528 22.8297 5.30571
1 1.61808 24.7541 6.96113
2 1.74286 22.7976 7.23029
1 -0.160969 22.9646 7.63265
1 1.74867 22.9415 9.20691
2 -0.169495 22.7196 9.58824
1 -0.0409527 24.7227 9.89939
1 -0.297041 22.8643 11.5469
2 -0.204222 24.7682 11.9544
1 1.74307 24.8695 12.2227
1 -0.166792 24.7495 13.9389
2 1.77435 24.7092 14.2632
1 1.72929 22.8225 14.6684
1 1.62053 24.746 16.2371
2 1.85008 22.8285 16.6055
1 -0.170891 22.828 16.9513
1 1.72878 22.8239 18.5482
2 -0.171987 22.8297 19.0137
1 -0.171783 24.749 19.2674
1 -0.167273 22.8256 20.9187
2 -0.174201 24.7467 21.2904
1 1.73906 24.7457 21.6286
1 -0.157477 24.7388 23.3397
2 1.75582 24.7448 23.4534
1 1.80625 22.9086 24.125
2 1.63287 22.6589 25.9486
1 -0.12999 22.9882 26.3478
1 1.84474 22.7248 27.8233
2 3.66161 -0.162522 0.237135
1 3.66052 1.74807 0.620831
1 3.66556 -0.173509 2.18649
2 3.65787 1.75129 2.57398
1 5.56483 1.75242 2.92852
1 3.67295 1.74255 4.54557
2 5.57946 1.74282 4.77802
1 5.61776 -0.111047 5.36357
2 5.5774 -0.281545 7.25285
1 3.69252 -0.139797 7.63886
1 5.58611 -0.284749 9.20104
2 3.69036 -0.071315 9.57109
1 3.65358 1.76168 9.97837
1 3.53974 -0.18063 11.5432
2 3.70728 1.78046 11.9309
1 5.58773 1.74996 12.3212
1 3.65667 1.738 13.8782
2 5.5801 1.74836 14.2689
1 5.57582 -0.164522 14.6558
1 5.57977 1.75648 16.2219
2 5.58782 -0.138395 16.5909
1 3.67252 -0.174864 17.0028
1 5.58155 -0.292942 18.5757
2 3.61923 -0.123401 18.9528
1 3.61221 1.7768 19.3276
1 3.67453 -0.174609 20.9001
2 3.66597 1.74503 21.2905
1 5.57925 1.75032 21.6728
1 3.65524 1.74049 23.2418
2 5.54762 1.74064 23.6079
1 5.63551 -0.200906 24.0123
1 5.68768 1.74265 25.5902
2 5.52692 -0.215538 25.9677
1 3.62968 -0.230881 26.3453
1 5.56908 -0.162701 27.9133
2 3.66704 3.66054 0.233852
1 3.64462 5.5787 0.63709
1 3.61891 3.69324 2.19896
2 3.81891 5.58135 2.541
1 5.61395 5.57603 2.96882
1 3.58524 5.5743 4.43856
2 5.56368 5.56375 4.91226
1 5.57754 3.57355 5.38508
1 5.5803 5.61193 6.85575
2 5.58279 3.81949 7.28321
1 3.69152 3.62425 7.6305
1 5.57808 3.64336 9.18734
2 3.65702 3.68857 9.59378
1 3.66359 5.66928 10.0634
1 3.66822 3.63972 11.5372
2 3.65994 5.4267 11.9626
1 5.54475 5.62163 12.308
1 3.65932 5.60333 13.8701
2 5.5815 5.57679 14.2733
1 5.57385 3.665 14.6589
1 5.57777 5.57587 16.2267
2 5.56392 3.66515 16.6144
1 3.55417 3.67331 17.1033
1 5.6306 3.66459 18.5514
2 3.8714 3.63032 18.9875
1 3.49094 5.53084 19.3073
1 3.6313 3.6662 20.8793
2 3.69395 5.58003 21.3129
1 5.58404 5.57823 21.6759
1 3.66264 5.57884 23.2462
2 5.57583 5.57941 23.6315
1 5.58697 3.65918 24.0226
1 5.58122 5.58866 25.5842
2 5.53694 3.70507 25.9698
1 3.65788 3.66666 26.3579
1 5.57871 3.66136 27.9204
2 3.66011 7.49768 0.232227
1 3.66273 9.41275 0.621624
1 3.61894 7.46669 2.19697
2 3.66179 9.40626 2.57133
1 5.57943 9.40927 2.95712
1 3.67029 9.41826 4.52579
2 5.57867 9.40964 4.91175
1 5.57613 7.49502 5.29728
1 5.62633 9.44094 6.87876
2 5.58792 7.50854 7.2507
1 3.66986 7.49774 7.60703
1 5.56712 7.49802 9.21698
2 3.6648 7.49677 9.45748
1 3.65934 9.3322 10.0626
2 3.70916 9.48733 11.9375
1 5.54868 9.37711 12.314
1 3.65161 9.52872 13.8967
2 5.62095 9.37265 14.2735
1 5.57847 7.48939 14.654
1 5.565 9.40771 16.2174
2 5.57293 7.49252 16.6105
1 3.63149 7.53539 16.9921
1 5.58231 7.49481 18.5617
2 3.7065 7.52923 18.9517
1 3.66227 9.42161 19.3313
1 3.6579 7.48872 20.8927
2 3.66058 9.41229 21.2886
1 5.57897 9.41201 21.6761
1 3.66306 9.41284 23.2422
2 5.57905 9.41302 23.6295
1 5.58359 7.49706 24.0204
1 5.5832 9.41064 25.5837
2 5.59674 7.49851 25.9732
1 3.66411 7.49603 26.3543
1 5.54785 7.49451 27.9178
2 3.65819 11.3301 0.232663
1 3.65909 13.252 0.621584
1 3.66314 11.3288 2.18671
2 3.6636 13.2514 2.57268
1 5.58034 13.2504 2.95922
1 3.66 13.2474 4.52805
2 5.5777 13.2473 4.91161
1 5.60098 11.329 5.31669
1 5.62432 13.2178 6.87702
2 5.4249 11.3294 7.21927
1 3.62984 11.3268 7.64693
1 5.67555 11.3308 9.11832
2 3.7138 11.3119 9.58045
1 3.65826 13.2322 9.98129
1 3.545 11.3535 11.6341
2 3.70434 13.3264 11.9158
1 5.608 13.2861 12.3078
1 3.66047 13.109 13.8874
2 5.58779 13.2844 14.249
1 5.47812 11.3343 14.6524
1 5.69544 13.2531 16.2489
2 5.56383 11.2828 16.6384
1 3.6213 11.2744 16.9099
1 5.57797 11.3405 18.56
2 3.65959 11.3402 18.9343
1 3.7018 13.2737 19.3251
1 3.66257 11.3314 20.8986
2 3.66062 13.2439 21.2924
1 5.57934 13.249 21.6715
1 3.66091 13.2477 23.2438
2 5.57405 13.2451 23.6274
1 5.57834 11.3314 24.0193
1 5.62451 13.2761 25.5943
2 5.5782 11.3345 25.9695
1 3.6625 11.3299 26.3583
1 5.57981 11.3266 27.9245
2 3.67118 15.1605 0.229267
1 3.68553 17.068 0.64197
1 3.70654 15.1967 2.19599
2 3.46113 17.0791 2.54966
1 3.7722 17.0765 4.43251
2 5.58729 17.0813 5.04526
1 5.57551 15.1686 5.28496
1 5.58021 17.058 6.89579
2 5.58169 15.1501 7.24969
1 3.69216 15.1686 7.64963
1 5.58903 15.1574 9.22032
2 3.6968 15.1178 9.58531
1 3.53849 17.0693 9.96807
1 3.65597 15.1791 11.5307
2 3.69693 17.0779 11.9573
1 5.60888 17.0343 12.3108
1 3.66989 17.0826 13.8862
2 5.58393 17.0833 14.2761
1 5.59395 15.1647 14.6261
1 5.57729 17.0769 16.2398
2 5.53301 15.201 16.4733
1 3.74634 15.1672 17.0908
2 3.50042 15.1619 18.9841
1 3.70535 17.0498 19.3252
1 3.68547 15.1624 20.8869
2 3.66157 17.0801 21.2877
1 5.57964 17.0746 21.6709
1 3.66866 17.0825 23.2407
2 5.57433 17.0847 23.6286
1 5.60046 15.1629 24.0359
1 5.62649 17.0524 25.5926
2 5.42637 15.1635 25.9412
1 3.63729 15.161 26.3675
1 5.67188 15.1657 27.8402
2 3.70365 18.9525 0.230253
1 3.53455 20.9218 0.592244
1 3.69401 18.9672 2.19109
2 3.68639 20.9021 2.61379
1 5.58309 20.907 2.94957
1 3.65675 20.9145 4.60131
2 5.58029 20.9154 4.85156
1 5.57906 18.9969 5.30059
1 5.57881 20.9089 6.90387
2 5.57912 18.8954 7.25709
1 3.6568 19.1138 7.62808
1 5.59069 19.0088 9.19545
2 3.7115 19.0005 9.61746
1 3.66778 20.8994 9.90926
1 3.65603 18.9907 11.5458
2 3.66276 20.9142 11.911
1 5.58056 20.9169 12.3209
1 3.66076 20.9117 13.8767
2 5.53815 20.8676 14.2688
1 5.57798 18.9857 14.6577
1 5.58736 20.9091 16.2154
2 5.58341 18.9977 16.6123
1 3.66895 18.992 16.9971
1 5.57979 18.9908 18.5651
2 3.66397 18.9867 18.9535
1 3.65963 20.9053 19.3061
1 3.66143 19.0024 20.9175
2 3.66479 20.9124 21.1555
1 5.49138 20.9084 21.7672
2 5.74858 20.9136 23.6606
1 5.53739 19.0273 24.0092
1 5.50734 20.944 25.5718
2 5.58248 18.9939 25.9699
1 3.66733 19.01 26.3606
1 5.58618 18.9884 27.9265
2 3.71441 22.8606 0.376998
1 3.66594 24.741 0.598951
1 3.65663 22.824 2.21814
2 3.67783 24.7471 2.57006
1 5.66203 24.7457 3.05311
1 3.64051 24.7475 4.51831
2 5.42398 24.7607 4.96561
1 5.62462 22.8492 5.29775
1 5.60074 24.7343 6.90685
2 5.57756 22.8892 7.23216
1 3.66714 22.7112 7.63361
1 5.58131 22.9472 9.21163
2 3.66113 22.7592 9.61433
1 3.66773 24.7497 9.93807
1 3.66175 22.8326 11.5333
2 3.70812 24.7016 11.9888
1 5.59382 24.735 12.2542
1 3.65741 24.7544 13.8859
2 5.53994 24.7887 14.274
1 5.70138 22.8301 14.6439
1 5.58865 24.7444 16.2885
2 5.55235 22.7957 16.6116
1 3.67984 22.8356 17.0091
1 5.58074 22.95 18.582
2 3.61439 22.79 18.9565
1 3.79149 24.7426 19.3332
1 3.67141 22.825 20.9164
2 3.64933 24.7441 21.317
1 5.66405 24.7465 21.6968
1 3.62829 24.7371 23.2608
2 5.42738 24.7463 23.6375
1 5.56677 22.8289 24.0131
1 5.54509 24.7062 25.5718
2 5.73913 22.8218 25.9432
1 5.50214 22.832 27.8358
2 7.4239 -0.237104 0.232222
1 7.62613 1.74451 0.534668
1 7.63148 -0.178339 2.21096
2 7.41995 1.78437 2.57615
1 9.37673 1.62539 2.87172
1 7.49059 1.73995 4.53426
2 9.39268 1.79327 4.89932
1 9.3785 -0.194909 5.21036
1 9.53856 1.71954 6.86434
2 9.36775 -0.21091 7.23583
1 7.46168 -0.13627 7.62733
1 9.42027 -0.161658 9.19368
2 7.54423 -0.127919 9.59026
1 7.49508 1.7539 9.9717
1 7.49207 -0.165693 11.5377
2 7.4939 1.74515 11.9321
1 9.41317 1.74444 12.2844
1 7.50592 1.74741 13.9002
2 9.41284 1.74818 14.1338
1 9.41594 -0.0750789 14.7454
2 9.40916 -0.328712 16.6389
1 7.52261 -0.129464 16.9908
1 9.41242 -0.144925 18.5422
2 7.5364 -0.127115 18.954
1 7.50506 1.75269 19.3381
1 7.49001 -0.179742 20.9141
2 7.4948 1.74709 21.3085
1 9.40842 1.75165 21.6758
1 7.49824 1.74466 23.3192
2 9.44449 1.75114 23.6213
1 9.35771 -0.156299 24.021
1 9.29239 1.74564 25.676
2 9.45173 -0.267172 25.9599
1 7.50137 -0.048049 26.3422
1 9.4133 -0.0453305 28.0136
2 7.45864 3.74399 0.248692
1 7.53693 5.62113 0.611555
1 7.50018 3.66482 2.1805
2 7.49931 5.58119 2.57843
1 9.41298 5.58169 2.92374
1 7.50316 5.57554 4.54514
2 9.41361 5.57984 4.77431
1 9.42426 3.74874 5.38794
2 9.35586 3.5535 7.28065
1 7.48712 3.66637 7.61959
1 9.41361 3.67965 9.17976
2 7.49748 3.66426 9.59585
1 7.50687 5.58158 9.97754
1 7.491 3.65805 11.5463
2 7.44698 5.53766 11.9306
1 9.41109 5.69899 12.3097
1 7.50183 5.5843 13.8792
2 9.41399 5.53288 14.2979
1 9.4127 3.56994 14.7487
1 9.41538 5.61398 16.2237
2 9.40975 3.81473 16.6415
1 7.52875 3.61653 16.9855
1 9.44431 3.68754 18.5602
2 7.50929 3.66826 18.9509
1 7.50671 5.58007 19.3414
1 7.4979 3.66558 20.9051
2 7.51238 5.57975 21.2947
1 9.50707 5.57953 21.7482
1 7.46679 5.58053 23.2369
2 9.25408 5.57689 23.6559
1 9.45306 3.68926 24.0103
1 9.43789 5.60097 25.574
2 9.4477 3.73619 25.9537
1 7.49799 3.53422 26.3476
1 9.41465 3.54825 27.9288
2 7.34146 7.49971 0.263103
1 7.54253 9.38411 0.608378
1 7.51797 7.498 2.17046
2 7.4932 9.41589 2.57562
1 9.41233 9.40577 2.95785
1 7.49918 9.41324 4.53081
2 9.41361 9.39377 4.91287
1 9.41501 7.4066 5.39239
1 9.36621 9.4691 6.87118
2 9.41386 7.66281 7.30199
1 7.52599 7.45517 7.62792
1 9.41315 7.47693 9.25948
2 7.4614 7.49962 9.56949
1 7.5091 9.42023 9.96783
1 7.61723 7.50447 11.5539
2 7.45542 9.44143 11.933
1 9.50837 9.28287 12.3923
1 7.47483 9.40377 13.8685
2 9.25793 9.4414 14.3222
1 9.45935 7.5278 14.571
1 9.43821 9.40462 16.2108
2 9.40844 7.50424 16.5929
1 7.49752 7.49912 16.9961
1 9.43325 7.44547 18.5723
2 7.50059 7.496 18.9495
1 7.49655 9.40674 19.3399
1 7.49845 7.49277 20.9048
2 7.49597 9.41 21.2932
1 9.41052 9.41399 21.6747
1 7.4976 9.41172 23.2466
2 9.40387 9.41061 23.6341
1 9.46103 7.46463 23.9735
1 9.40745 9.39596 25.5962
2 9.40633 7.49991 25.8338
1 7.58662 7.49664 26.4422
2 7.49614 11.3252 0.235339
1 7.49902 13.2571 0.605648
1 7.49463 11.3298 2.1818
2 7.49652 13.2474 2.57235
1 9.41197 13.2486 2.95613
1 7.49653 13.2404 4.53008
2 9.41376 13.2477 4.91088
1 9.3902 11.3288 5.31448
1 9.36772 13.2177 6.87772
2 9.5679 11.3359 7.22104
1 9.31705 11.3317 9.11951
2 7.49861 11.3535 9.72924
1 7.50577 13.3392 10.0738
1 7.49428 11.2835 11.5697
2 7.46485 13.0433 11.9886
1 9.36167 13.411 12.2876
1 7.50524 13.2797 13.9317
2 9.44911 13.2082 14.2702
1 9.45048 11.3056 14.6559
1 9.28673 13.2498 16.2358
2 9.45309 11.2872 16.6169
1 7.50064 11.4509 16.9861
1 9.4029 11.3425 18.562
2 7.49459 11.3021 18.975
1 7.44953 13.2777 19.2526
1 7.49981 11.3325 20.9052
2 7.49143 13.246 21.2731
1 9.38701 13.2543 21.6863
1 7.48359 13.2475 23.245
2 9.34717 13.2026 23.6084
1 9.42257 11.3302 24.0258
1 9.52273 13.2687 25.5988
2 9.36943 11.2864 25.9703
1 7.49067 11.3335 26.3576
1 9.41479 11.331 27.9184
2 7.50368 15.1594 0.370555
1 7.47651 17.068 0.622524
1 7.45117 15.1923 2.22664
2 7.65148 17.082 2.54056
1 9.44491 17.0798 2.96218
1 7.40702 17.0812 4.43936
2 9.39509 17.0808 4.90827
1 9.41314 15.1626 5.3022
1 9.40698 17.0573 6.86126
2 9.41493 15.1526 7.27115
1 7.49778 15.1579 7.59315
1 9.40078 15.1644 9.29967
2 7.47442 15.1627 9.42063
1 7.50852 16.9696 10.0858
2 7.46233 17.2816 11.9719
1 9.35893 16.9093 12.2916
1 7.49941 17.0447 13.8623
2 9.41226 17.1092 14.2919
1 9.3995 15.1598 14.5926
1 9.41276 17.0809 16.2267
2 9.44916 15.2043 16.5935
1 7.40009 15.0319 17.0722
1 9.44174 15.154 18.5492
2 7.65347 15.1914 19.0022
1 7.4518 17.0552 19.3293
1 7.47541 15.1617 20.8898
2 7.49826 17.0806 21.2928
1 9.42176 17.0693 21.6789
1 7.48241 17.0792 23.246
2 9.34307 17.1136 23.6089
1 9.5375 15.1565 24.027
1 9.51408 17.0606 25.6071
2 9.42165 15.1625 25.9578
1 9.34036 15.166 27.8323
2 7.49448 18.9968 0.233945
1 7.49779 20.9145 0.622744
1 7.45217 18.9648 2.196
2 7.49745 20.9048 2.58682
1 9.4149 20.9047 2.9479
1 7.49751 20.9173 4.59963
2 9.4187 20.9157 4.85093
1 9.41246 19.0055 5.31355
1 9.40958 20.9131 6.91017
2 9.41274 18.8919 7.25582
1 7.4957 19.1217 7.62469
1 9.40451 19.0067 9.19165
2 7.49878 18.9377 9.61512
1 7.49926 20.9061 9.90227
1 7.49262 19.0381 11.5346
2 7.49413 20.8935 11.8894
1 9.40503 20.9238 12.323
1 7.49597 21.0353 13.8938
2 9.45736 20.8692 14.2714
1 9.41456 18.9929 14.6604
1 9.40572 20.9151 16.2199
2 9.41087 18.9983 16.6145
1 7.49676 18.9964 16.9978
1 9.41222 18.9949 18.5668
2 7.49563 18.989 18.9506
1 7.49618 20.9073 19.3434
1 7.49736 18.9958 20.9056
2 7.46876 20.9088 21.2927
1 9.38174 20.9343 21.6985
1 7.55795 20.9693 23.2546
2 9.44224 20.7516 23.5946
1 9.42626 18.9661 24.0364
1 9.41629 21.0028 25.4917
2 9.38041 19.0597 25.9696
1 7.49218 18.9989 26.3518
1 9.38561 18.9911 27.907
2 7.4798 22.8225 0.225692
1 7.49881 24.7316 0.594392
1 7.4901 22.8276 2.19856
2 7.4523 24.7049 2.44175
1 9.32418 24.8685 3.03748
2 9.57947 24.7145 4.9627
1 9.37376 22.8418 5.30633
1 9.3854 24.7591 6.84742
2 9.41742 22.9271 7.26269
1 7.49553 22.7058 7.62497
1 9.42162 22.8092 9.19333
2 7.54359 22.8159 9.63725
1 7.36618 24.7489 9.96478
1 7.49087 22.8309 11.6121
2 7.53073 24.7794 11.9339
1 9.41602 24.7418 12.3294
1 7.49888 24.6252 13.9004
2 9.45586 24.8084 14.2775
1 9.28974 22.8274 14.644
1 9.40765 24.7105 16.2128
2 9.44391 22.8228 16.632
1 7.49397 22.8333 16.9324
1 9.41963 22.8259 18.5694
2 7.53846 22.782 18.935
1 7.37478 24.7442 19.2979
1 7.49107 22.8383 20.9196
2 7.53159 24.7501 21.1666
1 9.31878 24.7078 21.7956
2 9.5723 24.9066 23.6299
1 9.38647 24.6386 25.4643
2 9.4257 22.8249 26.1154
1 7.53808 22.8285 26.337
1 9.41471 22.8261 27.9623
2 11.3731 -0.211937 0.172425
1 11.2331 1.73635 0.646041
1 11.3621 -0.1346 2.24636
2 11.2018 1.84536 2.59188
1 11.4172 1.72794 4.49047
2 13.2779 1.77962 5.06653
1 13.2418 -0.127156 5.21495
1 13.1216 1.74802 6.91435
2 13.2859 -0.23076 7.22858
1 11.3317 -0.046735 7.62244
1 13.2372 -0.172201 9.19285
2 11.3297 -0.198679 9.61398
1 11.3265 1.7479 9.9049
1 11.328 -0.168796 11.5499
2 11.3314 1.74516 11.9133
1 13.2374 1.74706 12.3232
1 11.3193 1.7469 13.8975
2 13.2432 1.74616 14.2734
1 13.2501 -0.169853 14.6644
1 13.2431 1.74318 16.2267
2 13.2574 -0.169484 16.6338
1 11.2997 -0.125052 16.9807
1 13.2154 -0.171287 18.6272
2 11.2959 -0.179722 18.9297
1 11.332 1.71578 19.3457
1 11.4511 -0.174321 20.9196
2 11.289 1.8086 21.2824
1 13.2476 1.6221 21.6651
1 11.3354 1.7469 23.2321
2 13.2506 1.78404 23.6524
1 13.2459 -0.167597 23.9466
1 13.2479 1.74699 25.5845
2 13.2483 -0.166815 25.9682
1 11.3266 -0.169208 26.3508
1 13.2582 -0.169595 27.9968
2 11.3665 3.71386 0.230016
1 11.2878 5.61375 0.60853
1 11.3691 3.65187 2.18683
2 11.3187 5.57601 2.57439
1 13.1782 5.57591 2.97322
1 11.3188 5.58091 4.54483
2 13.267 5.57905 4.90774
1 13.2429 3.66225 5.29107
1 13.2505 5.58462 6.85874
2 13.2769 3.70865 7.25232
1 11.3013 3.56991 7.61159
1 13.2317 3.66125 9.20059
2 11.3269 3.69124 9.61741
1 11.3197 5.58968 9.98427
1 11.3326 3.65593 11.5484
2 11.3712 5.53956 11.9323
1 13.2525 5.5743 12.3182
1 11.3238 5.58706 13.8798
2 13.2442 5.58475 14.2722
1 13.2459 3.66389 14.6572
1 13.2417 5.57499 16.2251
2 13.243 3.65825 16.6109
1 11.3007 3.64009 17.0044
1 13.2145 3.70908 18.575
2 11.3343 3.50917 18.9251
1 11.3253 3.76042 20.8309
2 11.3314 5.58333 21.2907
1 13.1547 5.58173 21.7518
2 13.4152 5.5866 23.656
1 13.2032 3.6994 24.0078
1 13.2131 5.57913 25.5628
2 13.2482 3.66005 25.9733
1 11.3309 3.66056 26.3577
1 13.2481 3.6663 27.9273
2 11.4828 7.4981 0.262434
1 11.2855 9.37956 0.610859
1 11.308 7.49666 2.17015
2 11.3312 9.41392 2.5751
1 13.2445 9.41839 2.95737
1 11.3186 9.40735 4.52724
2 13.1979 9.36866 4.91215
1 13.2477 7.48578 5.2987
1 13.2498 9.41303 6.86041
2 13.241 7.49855 7.25243
1 11.2982 7.45524 7.62354
1 13.2488 7.49837 9.20145
2 11.3631 7.49691 9.56998
1 11.3175 9.41203 9.94872
1 11.2059 7.50823 11.5732
2 11.3767 9.44949 11.7967
1 13.1644 9.41597 12.4104
2 13.4025 9.41192 14.3227
1 13.2015 7.52672 14.6446
1 13.2247 9.41125 16.2775
2 13.2499 7.46556 16.5859
1 11.3323 7.48486 17.0172
1 13.2184 7.5876 18.5915
2 11.2778 7.6111 18.9262
1 11.455 9.43807 19.3386
1 11.3389 7.41021 20.8298
2 11.3083 9.40346 21.3084
1 13.3268 9.41523 21.6953
1 11.2859 9.40357 23.2334
2 13.0597 9.41114 23.6297
1 13.2523 7.50001 23.9978
1 13.4076 9.39808 25.5615
2 13.1849 7.45356 25.9717
1 11.2366 7.49001 26.4374
1 13.2759 7.50232 27.9087
2 11.3306 11.2922 0.256575
1 11.3266 13.2461 0.542614
1 11.3315 11.3274 2.18585
2 11.3296 13.2417 2.55348
1 13.2434 13.2397 2.96516
1 11.3222 13.2488 4.52412
2 13.2038 13.288 4.91318
1 13.3746 11.3286 5.28729
1 13.249 13.2384 6.86045
2 13.2215 11.327 7.27459
1 11.3554 11.3302 7.65001
1 13.2436 11.3292 9.21353
2 11.3062 11.3328 9.59162
1 11.3221 13.2439 9.98223
1 11.3273 11.3237 11.5569
2 11.3669 13.2071 11.9277
1 13.2514 13.243 12.3184
1 11.3277 13.2471 13.87
2 13.245 13.2431 14.27
1 13.2 11.2992 14.6436
1 13.2484 13.2493 16.2186
2 13.2434 11.3641 16.5919
1 11.3376 11.3153 16.9991
1 13.2469 11.2063 18.5845
2 11.2842 11.3748 18.9469
1 11.3476 13.2528 19.355
1 11.3835 11.3489 20.9116
2 11.1754 13.2146 21.2482
1 11.41 13.3582 23.2442
2 13.2853 13.1988 23.7083
1 13.3064 11.3058 24.0101
1 13.2309 13.2445 25.6377
2 13.1791 11.2653 25.9666
1 11.3147 11.4536 26.344
1 13.2504 11.3304 27.9013
2 11.313 15.1658 0.287092
1 11.3745 17.1079 0.527712
1 11.3253 15.1634 2.19016
2 11.3322 17.0794 2.55465
1 13.2464 17.0819 2.95139
1 11.322 17.0791 4.52128
2 13.2128 17.0753 4.88795
1 13.2496 15.1709 5.3044
1 13.3607 17.0764 6.87788
2 13.206 15.1209 7.24989
1 11.3194 15.1547 7.63826
1 13.2515 15.17 9.19645
2 11.3589 15.1634 9.57035
1 11.3274 17.0739 9.99162
1 11.2481 15.1578 11.5491
2 11.3295 17.0766 11.9336
1 13.2966 17.249 12.292
1 11.3277 17.0776 13.8658
2 13.2413 17.0476 14.2953
1 13.2478 15.1584 14.6591
1 13.2448 17.0792 16.2271
2 13.2467 15.1599 16.6155
1 11.3349 15.1661 16.9987
1 13.2456 15.1595 18.5695
2 11.3331 15.164 18.9691
1 11.3247 17.0775 19.3409
1 11.3768 15.13 20.9994
2 11.3315 17.1122 21.2767
1 13.2399 17.0701 21.6823
1 11.3286 16.9683 23.3377
2 13.3091 17.1147 23.6157
1 13.1134 15.1439 24.0083
1 13.1093 17.0988 25.6053
2 13.3368 15.2282 25.9804
1 11.3448 15.1597 26.232
1 13.2261 15.1606 27.9011
2 11.1734 19.0249 0.286004
1 11.3729 20.8884 0.611959
1 11.352 18.9964 2.17475
2 11.3259 20.9097 2.59097
1 13.2409 20.9243 2.97029
1 11.3625 20.9615 4.61378
2 13.2778 20.7552 4.85851
1 13.2462 18.9667 5.31957
1 13.1142 21.0073 6.79125
2 13.2451 19.0034 7.2684
1 11.3325 19.1263 7.62819
1 13.2544 18.9967 9.28158
2 11.2953 18.9603 9.59347
1 11.336 20.9096 9.9086
1 11.4094 18.9994 11.5514
2 11.2918 20.9531 11.9102
1 13.2959 20.746 12.2889
1 11.3431 20.9025 13.8692
2 13.2449 20.9425 14.2935
1 13.2464 18.9944 14.583
1 13.2455 20.9111 16.2263
2 13.2461 18.9956 16.5929
1 11.3297 18.9953 16.996
1 13.245 18.9984 18.5663
2 11.327 18.9949 18.9471
1 11.3504 20.9121 19.3548
1 11.3732 19.0278 20.9145
2 11.1747 20.9071 21.2589
1 11.3876 20.9508 23.1722
2 13.2387 20.9157 23.7677
1 13.2397 19.01 23.9745
1 13.2488 20.9092 25.629
2 13.2883 19.0323 25.8308
1 11.4197 18.8735 26.4321
2 11.3334 22.8253 0.233524
1 11.3233 24.755 0.645053
1 11.3268 22.8106 2.189
2 11.3158 24.6474 2.58072
1 13.2419 24.8213 2.96734
1 11.3831 24.7135 4.51966
2 13.2509 24.8671 4.91004
1 13.2542 24.6621 6.78371
2 13.2936 22.8714 7.38877
1 11.3426 22.7036 7.60557
1 13.2476 22.8203 9.2311
2 11.3298 22.8578 9.61375
1 11.33 24.7438 9.9828
1 11.3286 22.8306 11.5481
2 11.3304 24.7436 11.9353
1 13.2458 24.7469 12.3177
1 11.3332 24.7509 13.8856
2 13.2464 24.7455 14.2715
1 13.2487 22.8327 14.66
1 13.2465 24.7509 16.2275
2 13.2466 22.8308 16.6152
1 11.3358 22.8287 17.0016
1 13.2479 22.8264 18.5702
2 11.3319 22.8298 18.9537
1 11.3294 24.7444 19.3475
1 11.3636 22.7964 20.9208
2 11.2675 24.7001 21.2918
1 13.2446 24.8675 21.6625
1 11.339 24.706 23.2433
2 13.241 24.7132 23.6522
1 13.2415 22.812 24.0074
1 13.2452 24.7464 25.5865
2 13.2437 22.8312 25.9692
1 11.3211 22.832 26.3403
1 13.2382 22.8257 27.918
2 15.1954 -0.169335 0.210349
1 15.1449 1.754 0.657564
1 14.9804 -0.120363 2.21514
2 15.3595 1.73749 2.54395
1 17.1866 1.85102 3.0813
1 15.0386 1.74252 4.40954
2 16.8281 1.68647 4.98331
1 17.1164 -0.141679 5.29269
1 17.1634 1.79414 6.91272
2 17.075 -0.190603 7.23693
1 15.1685 -0.163727 7.63772
1 17.0779 -0.0495727 9.21904
2 15.1179 -0.209202 9.59225
1 15.2875 1.75291 9.96848
1 15.1679 -0.165569 11.5385
2 15.1294 1.74682 11.9548
1 17.0799 1.74941 12.2424
1 15.1631 1.74655 13.8885
2 17.0787 1.75031 14.2525
1 17.0792 -0.168175 14.6248
1 17.0786 1.73771 16.2372
2 17.0805 -0.169178 16.4731
1 15.2519 -0.169745 17.0775
2 15.0419 -0.170082 18.9518
1 15.1984 1.71604 19.3314
1 15.0552 -0.172441 20.903
2 15.1996 1.79046 21.2904
1 17.0841 1.7686 21.6914
1 15.189 1.78542 23.2515
2 17.0779 1.57964 23.5997
1 17.126 -0.228065 24.0114
1 17.0765 1.83769 25.4952
2 17.0775 -0.15075 25.9656
1 15.1651 -0.167565 26.351
1 17.0841 -0.161459 27.9213
2 15.1325 3.66373 0.200565
1 15.2108 5.5696 0.657715
1 15.2904 3.67898 2.22231
2 14.9111 5.5757 2.53163
1 15.2837 5.5775 4.40739
2 17.0347 5.621 5.11005
1 17.2547 3.61903 5.2035
1 17.1323 5.53685 6.9157
2 16.8935 3.68543 7.20199
1 15.1313 3.65789 7.64906
1 17.1643 3.52947 9.12844
2 15.1239 3.70444 9.59065
1 15.1611 5.58298 9.97809
1 15.1727 3.66075 11.535
2 15.1639 5.5809 11.9328
1 17.0736 5.58029 12.3201
1 15.1601 5.58203 13.887
2 17.0769 5.5789 14.2735
1 17.0788 3.6606 14.6596
1 17.0776 5.58129 16.2251
2 17.079 3.66337 16.6102
1 15.1592 3.66224 17.0003
1 17.0767 3.65825 18.563
2 15.1557 3.65663 18.9513
1 15.1564 5.57509 19.3441
1 15.1647 3.67063 20.9066
2 15.1432 5.58467 21.2931
1 17.0781 5.55895 21.6919
1 15.219 5.53775 23.2461
2 17.0843 5.74733 23.6009
1 17.0829 5.48658 25.4949
2 17.0773 3.66373 26.1386
1 15.1716 3.66311 26.3367
1 17.0804 3.66199 28.0372
2 15.1379 7.45656 0.228499
1 15.1675 9.39665 0.553066
1 15.3284 7.45047 2.21338
2 15.1274 9.41571 2.53137
1 17.1723 9.33313 3.04332
1 15.1299 9.53207 4.51979
2 16.9323 9.39 4.94922
1 17.1362 7.51932 5.20382
1 17.2275 9.41007 6.8501
2 17.0352 7.44811 7.23496
1 15.1601 7.49021 7.63305
1 17.0752 7.51008 9.19482
2 15.1631 7.49837 9.59193
1 15.1585 9.41365 9.98199
1 15.161 7.49983 11.5453
2 15.1467 9.41259 11.9349
1 17.0817 9.41332 12.3142
1 15.1934 9.41404 13.8805
2 17.0833 9.41183 14.2697
1 17.0767 7.49789 14.6606
1 17.1237 9.44258 16.2346
2 17.0787 7.50322 16.6102
1 15.1572 7.50732 17.0032
1 17.0845 7.49281 18.5646
2 15.2052 7.45123 18.9518
1 15.0408 9.41468 19.2998
1 15.1547 7.50611 20.9159
2 15.1994 9.41959 21.171
1 16.9973 9.41431 21.7625
2 17.2679 9.42018 23.6474
1 17.021 7.55888 24.0163
1 16.9241 9.40656 25.5686
2 17.1168 7.4278 25.9851
1 15.1652 7.61575 26.337
1 17.0769 7.49605 27.9913
2 15.1197 11.2915 0.313763
1 15.2828 13.2491 0.52745
1 15.169 11.3354 2.25716
2 15.1294 13.2811 2.56422
1 17.0757 13.2412 2.88827
1 15.1663 13.1181 4.53994
2 17.1207 13.2887 4.88719
1 16.9941 11.3028 5.28025
1 17.07 13.2343 6.84848
2 17.0674 11.3745 7.2814
1 15.1584 11.3291 7.56562
1 17.0821 11.3218 9.20459
2 15.1627 11.3247 9.57213
1 15.1605 13.2286 9.97807
1 15.1589 11.3236 11.5426
2 15.1571 13.2343 11.9348
1 17.0474 13.246 12.3264
1 15.1621 13.2436 13.8903
2 17.0936 13.2457 14.2677
1 17.1029 11.3331 14.6756
1 17.1287 13.2164 16.234
2 16.922 11.3279 16.5805
1 15.1281 11.322 17.0082
1 17.1722 11.3337 18.4789
2 15.2291 11.3722 18.9475
1 15.1476 13.247 19.3609
1 15.1149 11.3485 20.9226
2 15.3151 13.2465 21.2785
1 17.1105 13.2444 21.6789
1 15.0974 13.2417 23.2303
2 17.1001 13.2449 23.6156
1 17.0093 11.3035 24.0149
1 16.9443 13.2457 25.6649
2 17.1828 11.2986 25.9444
1 15.1604 11.3377 26.3104
1 17.0684 11.4518 27.9201
2 15.1202 15.245 0.248239
1 15.1124 17.1198 0.612726
1 15.1705 15.1653 2.17577
2 15.167 17.076 2.59656
1 17.0777 17.0825 2.96086
1 15.1667 17.084 4.60124
2 17.1091 17.0954 4.90456
1 17.0758 15.1747 5.30254
1 16.9572 17.0562 6.95693
2 17.116 15.085 7.23709
1 15.1631 15.2988 7.63943
1 17.0707 15.2954 9.21654
2 15.1213 15.0923 9.6086
1 15.2822 17.1828 9.99369
1 15.1742 15.1208 11.5289
2 15.1684 16.8729 11.9815
1 17.0543 17.1306 12.2364
1 15.1551 17.1069 13.8624
2 17.0377 17.0332 14.2549
1 17.0738 15.1525 14.6575
1 17.0885 17.0801 16.2148
2 17.0861 15.1576 16.6123
1 15.1653 15.1616 16.9964
1 17.0804 15.1603 18.5645
2 15.1638 15.1644 18.9491
1 15.1698 17.0787 19.3452
1 15.1198 15.1347 20.9169
2 15.1796 17.0768 21.2896
1 17.1685 17.0784 21.761
1 15.1432 17.0803 23.2345
2 16.9271 17.0792 23.6573
1 17.1152 15.1829 24.0103
1 17.101 17.0947 25.5611
2 17.1169 15.2348 25.9578