1781
Atoms. Timestep: 576
2 -0.396772 -0.235683 0.355663
1 -0.16991 1.68013 0.554616
1 -0.194223 -0.209836 2.29345
2 -0.217146 1.71585 2.51177
1 1.7011 1.69666 3.00582
1 -0.208669 1.7144 4.59357
2 1.78408 1.78098 4.93582
1 1.68502 -0.213894 5.29656
1 1.64838 1.65534 6.87166
2 1.87379 -0.208636 7.29908
1 1.61481 -0.220844 9.14586
2 -0.209521 -0.211507 9.7497
1 -0.20978 1.695 9.97764
1 -0.261094 -0.244082 11.5997
2 -0.209321 1.70885 11.9368
1 1.70685 1.70144 12.33
1 -0.215842 1.7186 13.8903
2 1.66438 1.75672 14.2733
1 1.84322 -0.210482 14.6491
1 1.75942 1.74945 16.2308
2 1.63592 -0.160566 16.6166
1 -0.223349 -0.203667 16.9906
1 1.71968 -0.220845 18.5474
2 -0.212128 -0.223399 18.9389
1 -0.194808 1.66189 19.3409
1 -0.210893 -0.209985 20.8913
2 -0.25414 1.67358 21.2869
1 1.70069 1.84586 21.6332
1 -0.224563 1.7241 23.3125
2 1.70959 1.67474 23.5591
1 1.71496 -0.209048 23.9664
1 1.75055 1.69614 25.6081
2 1.69044 -0.30232 25.801
1 -0.170477 -0.0313458 26.3834
2 -0.224865 3.66085 0.314251
1 -0.212914 5.56522 0.63768
1 -0.218299 3.63539 2.29214
2 -0.220484 5.58832 2.58393
1 1.70257 5.54811 2.99265
1 -0.218298 5.41778 4.56085
2 1.71964 5.59849 4.92711
1 1.58146 3.65027 5.32079
1 1.84063 5.55336 6.98324
2 1.70764 3.5372 7.28433
1 -0.208071 3.63462 7.58513
1 1.70565 3.77236 9.22923
2 -0.25628 3.58741 9.58452
1 -0.0976516 5.55503 9.98451
1 -0.20234 3.63336 11.5425
2 -0.245626 5.55599 11.9625
1 1.71478 5.55818 12.2379
1 -0.211048 5.55699 13.8942
2 1.70898 5.55776 14.246
1 1.72953 3.64193 14.6769
1 1.75602 5.52035 16.2314
2 1.54978 3.63443 16.5894
1 -0.246513 3.66989 17.0125
1 1.76811 3.67215 18.5482
2 -0.187688 3.40833 18.8672
1 -0.0734479 3.74647 20.776
2 -0.222079 5.56185 21.4275
1 1.7049 5.43267 21.6396
1 -0.211373 5.66762 23.2726
2 1.76787 5.54254 23.6312
1 1.71571 3.61789 23.9316
1 1.6473 5.59629 25.5615
2 1.70734 3.74475 25.9222
1 -0.22796 3.4575 26.3045
1 1.70479 3.61988 27.8685
2 -0.210731 7.48336 0.414392
1 -0.213792 9.39467 0.645922
1 -0.211906 7.4858 2.26161
2 -0.212681 9.40799 2.60468
1 1.70938 9.42971 3.01049
1 -0.177387 9.44778 4.56735
2 1.72062 9.22888 4.89711
1 1.72432 7.44209 5.33657
1 1.70806 9.46391 6.78156
2 1.66994 7.57445 7.25516
1 -0.211236 7.48037 7.66231
1 1.71237 7.35082 9.2256
2 -0.257982 7.52062 9.60615
1 -0.209728 9.4084 9.98604
1 -0.203602 7.47552 11.5473
2 -0.215854 9.40051 11.9399
1 1.67623 9.40145 12.3364
1 -0.211799 9.40004 13.8942
2 1.73143 9.40111 14.2895
1 1.71376 7.48048 14.6537
1 1.71681 9.40052 16.2959
2 1.71822 7.44048 16.5772
1 -0.17469 7.44768 17.0318
1 1.68786 7.58405 18.5807
2 -0.245487 7.6583 18.9199
1 -0.073003 9.45 19.3158
1 -0.227402 7.38458 20.8447
2 -0.248804 9.43564 21.2617
1 1.70173 9.39544 21.5762
1 -0.208413 9.26819 23.2188
2 1.72079 9.4448 23.5551
1 1.5553 7.48626 24.007
1 1.80676 9.36948 25.5743
2 1.86896 7.42936 25.9195
1 1.61505 7.48477 27.7897
2 -0.211623 11.3195 0.278157
1 -0.192473 13.2469 0.680671
1 -0.152023 11.3441 2.23684
2 -0.336844 13.1936 2.58229
1 -0.061228 13.1886 4.48832
2 1.72211 13.4086 4.88794
2 1.71411 11.1449 7.45609
1 -0.157501 11.3799 7.61813
1 1.71549 11.3474 9.25336
2 -0.213659 11.3226 9.60297
1 -0.202712 13.2389 9.98482
1 -0.212119 11.3239 11.554
2 -0.207746 13.2452 11.9338
1 1.71572 13.2447 12.3227
1 -0.203211 13.2458 13.8832
2 1.71377 13.2454 14.2681
1 1.71582 11.3178 14.6523
1 1.71888 13.2501 16.2175
2 1.71864 11.3561 16.5821
1 -0.203768 11.3094 16.9952
1 1.71478 11.1882 18.5675
2 -0.261592 11.3781 18.9306
1 -0.250795 13.2572 19.3503
1 -0.248911 11.3532 20.8929
2 -0.000201673 13.207 21.228
1 1.73391 13.2653 21.695
1 -0.279989 13.2977 23.1238
2 1.70797 13.0776 23.5646
1 1.72405 11.2944 24.0033
1 1.70567 13.3491 25.4456
2 1.66765 11.3919 25.9362
1 -0.2073 11.3278 26.3249
1 1.71568 11.3269 27.8817
2 -0.177931 15.1673 0.245963
1 -0.215155 17.0795 0.665445
1 -0.312825 15.1377 2.25005
2 -0.168975 17.1369 2.60709
1 1.71048 17.0821 2.99771
1 -0.211656 17.082 4.55113
2 1.70998 17.0798 4.94382
1 1.7164 15.1198 5.40829
1 1.71656 17.1207 6.87975
2 1.7118 15.3379 7.30636
1 -0.179978 15.1236 7.64562
1 1.7188 15.1424 9.20053
2 -0.164618 15.1262 9.60599
1 -0.345709 17.087 9.98292
1 -0.214467 15.1699 11.5498
2 -0.175976 17.0911 11.9627
1 1.72034 17.096 12.3312
1 -0.219177 17.0871 13.8926
2 1.67067 17.045 14.2735
1 1.70793 15.1623 14.656
1 1.7156 17.094 16.2165
2 1.72412 15.1686 16.6043
1 -0.205051 15.1749 16.991
1 1.71831 15.1705 18.5547
2 -0.183477 15.1721 18.9176
1 -0.261095 17.1092 19.3245
1 -0.379218 15.1206 20.9182
2 -0.144455 17.1266 21.2748
1 1.82126 17.0586 21.7742
1 -0.225386 17.0371 23.2136
2 1.53894 17.2595 23.6044
1 1.74203 16.9821 25.4303
2 1.70944 15.1662 26.0836
1 -0.203874 15.168 26.2979
1 1.71916 15.1656 27.9267
2 -0.167714 18.9702 0.273728
1 -0.326423 20.94 0.651949
1 -0.213203 19.0244 2.21684
2 -0.179307 20.9372 2.65356
1 1.71575 20.9474 2.99605
1 -0.216049 20.9311 4.63681
2 1.70623 20.8787 4.91911
1 1.70116 19.0101 5.32945
1 1.58385 20.9479 6.91236
2 1.76083 18.9757 7.27315
1 -0.211511 19.1419 7.64892
1 1.71898 19.0244 9.21506
2 -0.159753 19.0286 9.6293
1 -0.153485 20.9762 9.90267
1 -0.217936 19.0154 11.5488
2 -0.212654 20.9365 11.916
1 1.71008 20.9345 12.3189
1 -0.210473 20.9381 13.8807
2 1.67052 20.9801 14.267
1 1.84042 19.0117 14.6496
1 1.70961 20.9213 16.2142
2 1.65821 19.0109 16.6303
1 -0.299834 19.0097 17.087
1 1.74804 19.0125 18.5532
2 -0.0505322 19.0125 18.9728
1 -0.259498 20.9063 19.315
1 -0.216367 19.0068 20.8711
2 -0.162463 20.8929 21.2684
1 1.72083 20.9325 21.6518
1 -0.206778 20.9381 23.2121
2 1.7141 20.94 23.6045
1 1.75733 19.025 23.9843
1 1.71306 20.933 25.5533
2 1.70995 18.9988 25.9293
1 -0.202842 19.0092 26.3218
1 1.71215 19.0023 27.8757
2 -0.155537 22.9039 0.271589
1 -0.156259 24.8145 0.644374
1 -0.218275 22.8496 2.21229
2 -0.213507 24.7374 2.58881
1 1.72375 24.7918 2.992
1 -0.225121 24.9196 4.56461
2 1.63772 24.7135 4.9359
1 1.85093 22.8443 5.28572
1 1.67256 24.8187 6.89153
2 1.71701 22.9128 7.15429
1 -0.113215 22.7228 7.74385
2 -0.378331 22.8871 9.66118
1 -0.185568 24.7664 9.98429
1 -0.233476 22.8888 11.5528
2 -0.0438953 24.782 11.9059
1 1.75412 24.7845 12.3298
1 -0.317346 24.7726 13.7902
2 1.60771 24.7411 14.2505
1 1.70785 22.8643 14.6617
1 1.84252 24.7809 16.2233
2 1.67523 22.8085 16.6037
1 -0.209211 22.8578 16.9845
1 1.71976 22.8624 18.5484
2 -0.177289 22.8507 18.917
1 -0.216215 24.7742 19.3272
1 -0.340125 22.8537 20.8925
2 -0.173246 24.8222 21.2716
1 1.68357 24.7811 21.6637
1 -0.216633 24.7782 23.2217
2 1.72975 24.7749 23.6019
1 1.71631 22.8618 23.9893
1 1.71563 24.7693 25.5708
2 1.70932 22.8473 25.9355
1 -0.20731 22.8466 26.3321
1 1.75557 22.9188 27.8992
2 3.76997 -0.0785186 0.292053
1 3.59189 1.7149 0.584965
1 3.75154 -0.303134 2.19743
2 3.59229 1.78807 2.5691
1 5.548 1.57327 2.97697
1 3.64616 1.55191 4.55302
2 5.59665 1.78594 4.97429
1 5.41468 -0.21401 5.22283
1 5.55411 1.70108 6.95732
2 5.59592 -0.249042 7.25979
1 3.68144 -0.203961 7.58712
1 5.55179 -0.0824935 9.23581
2 3.56992 -0.26333 9.60326
1 3.7629 1.69487 9.98114
1 3.63692 -0.212307 11.6233
2 3.59815 1.74888 11.9412
1 5.5546 1.70658 12.2521
1 3.63524 1.5997 13.8992
2 5.60291 1.75759 14.2472
1 5.42395 -0.20619 14.6481
1 5.50267 1.73384 16.2212
2 5.63472 -0.162918 16.6187
1 3.63369 -0.335022 16.8967
1 5.54956 -0.219128 18.5506
2 3.63072 -0.172291 18.9478
1 3.62429 1.72817 19.3183
1 3.68501 -0.245243 20.896
2 3.67685 1.65778 21.2898
1 5.56371 1.70546 21.6415
1 3.63322 1.71534 23.2973
2 5.56048 1.71494 23.5383
1 5.55563 -0.210226 24.0066
1 5.55057 1.70101 25.6026
2 5.4765 -0.271353 25.9611
1 3.52231 -0.0833472 26.4166
1 5.56689 -0.252073 27.9492
2 3.63286 3.66867 0.290813
1 3.63419 5.56169 0.669439
1 3.62915 3.6406 2.2209
2 3.59159 5.5128 2.63425
1 5.55244 5.69107 2.9762
1 3.63838 5.56517 4.63101
2 5.58214 5.52035 4.93517
1 5.5525 3.64309 5.3347
1 5.44015 5.56261 6.89582
2 5.60244 3.62467 7.25631
1 3.638 3.76347 7.65347
1 5.56126 3.50513 9.22887
2 3.62924 3.60223 9.62143
1 3.49918 5.56514 9.89886
1 3.63454 3.64526 11.5407
2 3.66552 5.56357 11.9482
1 5.55515 5.55894 12.3226
1 3.62695 5.55455 13.8905
2 5.52692 5.55962 14.2459
1 5.5464 3.64319 14.676
1 5.6562 5.52916 16.2384
2 5.67809 3.57972 16.5735
1 5.47094 3.63898 18.4535
2 3.6726 3.63133 19.0594
1 3.6245 5.52432 19.3167
1 3.50206 3.63182 20.9302
2 3.68073 5.60998 21.2697
1 5.56429 5.56021 21.6524
1 3.63645 5.54959 23.213
2 5.55627 5.55303 23.6003
1 5.55708 3.62231 24.007
1 5.55946 5.57344 25.5481
2 5.55693 3.74417 25.9438
1 3.63108 3.499 26.3031
1 5.54747 3.61531 27.8732
2 3.57487 7.44459 0.272832
1 3.63618 9.39791 0.589767
1 3.76066 7.48238 2.23629
2 3.58546 9.4493 2.57939
1 5.54109 9.27683 2.99938
1 3.63448 9.49038 4.57126
2 5.54482 9.2769 4.93725
1 5.54896 7.44946 5.25732
1 5.55797 9.50337 6.80451
2 5.58959 7.54576 7.24555
1 3.63426 7.3478 7.64661
1 5.55534 7.48663 9.21291
2 3.67329 7.55378 9.61878
1 3.65796 9.41697 10.0072
1 3.67432 7.50484 11.5597
2 3.46408 9.40212 11.908
1 3.74198 9.40447 13.7961
2 5.56303 9.42173 14.4474
1 5.56431 7.48723 14.6435
1 5.55306 9.37334 16.3223
2 5.50719 7.4775 16.5786
1 3.62463 7.493 17.0032
1 5.55778 7.61032 18.563
2 3.63084 7.36467 18.9311
1 3.6333 9.40206 19.2753
1 3.63927 7.49811 20.8669
2 3.63476 9.40571 21.36
1 5.55924 9.40451 21.5701
1 3.6377 9.40116 23.3061
2 5.57842 9.40038 23.5603
1 5.54933 7.48165 23.9941
1 5.42364 9.40398 25.5567
2 5.61047 7.44175 25.9576
1 3.6737 7.61114 26.3172
1 5.53571 7.48533 27.9595
2 3.63604 11.3538 0.297611
1 3.61295 13.2516 0.677867
1 3.57825 11.3629 2.24593
2 3.79521 13.2537 2.57757
1 5.5667 13.2236 3.02562
1 3.51469 13.1429 4.5094
2 5.53584 13.4089 4.90355
1 5.55213 13.149 6.78814
2 5.54606 11.3282 7.41559
1 3.59263 11.3802 7.60172
1 5.55045 11.3188 9.25805
2 3.63308 11.3264 9.60303
1 3.62834 13.2409 9.98465
1 3.68054 11.2937 11.5684
2 3.62834 13.2376 11.9361
1 5.55034 13.2463 12.2833
1 3.64399 13.2444 13.9024
2 5.55597 13.2439 14.1291
1 5.55737 11.4052 14.7285
2 5.55808 11.2013 16.6077
1 3.66606 11.3564 16.9867
1 5.55602 11.2037 18.5553
2 3.6284 11.4296 18.9298
1 3.66233 13.27 19.3383
1 3.67729 11.3411 20.8824
2 3.49154 13.2407 21.2329
1 3.69856 13.2923 23.1439
2 5.54723 13.2535 23.7439
1 5.54825 11.3351 23.9764
1 5.56481 13.2543 25.5883
2 5.59982 11.3614 25.9322
1 3.6254 11.1916 26.3065
1 5.53921 11.3229 27.8782
2 3.64244 15.1709 0.26811
1 3.64132 17.0879 0.663461
1 3.58479 15.1296 2.23957
2 3.58997 17.0379 2.60416
1 5.54917 17.2227 2.98186
1 3.63215 17.0922 4.5513
2 5.55409 17.0627 4.96171
1 5.55766 15.1924 5.33817
1 5.55927 17.0867 6.89581
2 5.5622 15.1476 7.27629
1 3.60558 15.1168 7.63856
1 5.51616 15.1643 9.20951
2 3.62891 15.1691 9.60357
1 3.63288 17.0929 9.98557
1 3.63594 15.1608 11.5513
2 3.63473 17.0576 11.9167
1 5.55528 17.0901 12.3296
1 3.64001 17.2193 13.8994
2 5.60143 17.0215 14.2768
1 5.56253 15.0645 14.7504
1 5.55074 17.1207 16.2107
2 5.55051 15.3315 16.6397
1 3.66896 15.1174 16.9811
1 5.5867 15.1933 18.5545
2 3.63576 15.1741 18.939
1 3.64 17.089 19.2818
1 3.6769 15.1511 20.9196
2 3.63776 17.0889 21.1236
1 5.46924 17.0834 21.7359
2 5.72117 17.0943 23.6379
1 5.50265 15.1919 23.9587
1 5.53544 17.0892 25.5335
2 5.5568 15.1726 25.9342
1 3.62377 15.173 26.2963
1 5.54892 15.1651 27.8816
2 3.60281 19.002 0.24717
1 3.64339 20.894 0.662877
1 3.76297 19.0064 2.2301
2 3.59019 20.9575 2.57508
1 5.55284 20.812 2.98403
1 3.64102 21.0738 4.55224
2 5.604 20.9215 4.96423
1 5.56168 19.0062 5.24877
1 5.55393 20.944 6.88946
2 5.55628 19.0152 7.25115
1 3.64442 19.0079 7.66017
1 5.55179 19.014 9.22025
2 3.63524 19.0216 9.62929
1 3.58573 20.9651 9.97548
1 3.63631 19.0152 11.6277
2 3.63329 20.9661 11.9156
1 5.55159 20.9345 12.3222
1 3.62915 20.8027 13.8918
2 5.56287 20.9812 14.2483
1 5.42923 19.0147 14.6466
1 5.69157 20.9247 16.2272
2 5.53938 18.9762 16.6253
1 3.62849 19.0109 16.9114
1 5.58312 18.9707 18.5613
2 3.64762 19.0178 18.915
1 3.63492 20.927 19.3294
1 3.63027 19.0016 20.8976
2 3.63686 20.9382 21.2726
1 5.55385 20.9388 21.6531
1 3.63636 20.9321 23.2198
2 5.55632 20.9263 23.6047
1 5.50985 18.9806 23.9786
1 5.55301 20.9262 25.549
2 5.55511 19.012 25.9581
1 3.6316 19.0057 26.3115
1 5.55545 19.0118 27.9617
2 3.64076 22.686 0.258707
1 3.62691 22.9297 2.20177
2 3.60133 24.7319 2.70076
1 5.53701 24.9131 2.97623
1 3.62925 24.7835 4.62523
2 5.66978 24.7461 4.95872
1 5.42213 22.855 5.32788
1 5.54541 24.768 6.87545
2 5.6099 22.8568 7.30407
1 3.54627 22.8651 7.66951
1 5.51981 22.8561 9.19728
2 3.76824 22.8557 9.61308
1 3.57589 24.7481 9.97508
1 3.6132 22.8575 11.5257
2 3.64646 24.7473 11.9308
1 5.54742 24.7801 12.3286
1 3.63534 24.9095 13.9843
2 5.63274 24.7411 14.2597
1 5.56349 22.8587 14.6661
1 5.41736 24.7866 16.2259
2 5.54646 22.8557 16.6078
1 3.62904 22.9778 16.9867
1 5.55751 22.8604 18.5507
2 3.63313 22.8173 18.9611
1 3.65355 24.7797 19.2587
1 3.68303 22.8895 20.8986
2 3.46637 24.7778 21.2097
1 3.72266 24.7818 23.1191
2 5.5148 24.7818 23.7243
1 5.56294 22.8673 23.9782
1 5.68456 24.7711 25.5968
2 5.51292 22.8038 25.935
1 3.62945 22.8743 26.3414
1 5.52478 22.9083 27.8924
2 7.51949 -0.211624 0.314445
1 7.46219 1.70562 0.584999
1 7.36144 -0.211402 2.23884
2 7.52241 1.75522 2.584
1 9.40212 1.71463 2.99045
1 7.47474 1.71205 4.54545
2 9.36747 1.71794 4.91924
1 9.40783 -0.209645 5.32823
1 9.53165 1.72221 6.89146
2 9.35448 -0.219394 7.24671
1 7.47562 -0.215092 7.66849
1 9.40886 -0.283941 9.21627
2 7.48197 -0.214596 9.60807
1 7.34395 1.71932 9.9807
1 7.4799 -0.216384 11.5381
2 7.51626 1.70793 11.9584
1 9.41295 1.71509 12.3239
1 7.48437 1.71514 13.8897
2 9.40481 1.70937 14.2726
1 9.3998 -0.21395 14.6552
1 9.40441 1.70317 16.2193
2 9.40458 -0.216717 16.6027
1 7.49389 -0.207031 16.9921
1 9.40072 -0.210946 18.5552
2 7.48197 -0.210457 18.9403
1 7.47596 1.70611 19.3293
1 7.4322 -0.241705 20.9006
2 7.48379 1.70393 21.2926
1 9.3996 1.70915 21.6501
1 7.48287 1.71353 23.2977
2 9.43444 1.70792 23.5777
1 9.38539 -0.215121 23.9955
1 9.25905 1.70794 25.5601
2 9.51628 -0.206414 25.9248
1 7.47546 -0.204889 26.2719
1 9.39019 -0.216085 27.8622
2 7.42685 3.62231 0.297316
1 7.61142 5.5615 0.656563
1 7.49426 3.63884 2.22142
2 7.5089 5.5126 2.63484
1 9.49626 5.54971 3.01195
1 7.45014 5.563 4.54535
2 9.2398 5.55819 4.95464
1 9.44853 3.66979 5.31764
1 9.47547 5.59609 6.88542
2 9.35318 3.68248 7.26834
1 7.48111 3.6299 7.66215
1 9.44139 3.68183 9.2246
2 7.53479 3.68227 9.60626
1 7.50519 5.57399 10.0007
1 7.46863 3.62668 11.5497
2 7.43474 5.51047 11.9602
1 9.41679 5.6977 12.2826
1 7.48188 5.5599 13.9571
2 9.41754 5.52029 14.2707
1 9.39497 3.62966 14.6635
1 9.26575 5.55921 16.2322
2 9.45121 3.58787 16.6082
1 7.50697 3.76603 16.9826
1 9.39869 3.63952 18.5515
2 7.46176 3.59912 18.9563
1 7.47838 5.54729 19.246
1 7.47643 3.63349 20.8867
2 7.4804 5.55782 21.2496
1 9.40106 5.56329 21.6623
1 7.47531 5.55798 23.218
2 9.35564 5.51594 23.6202
1 9.39252 3.62678 23.9898
1 9.4099 5.56484 25.6163
2 9.45143 3.64235 25.9128
1 7.47968 3.49655 26.3116
1 9.39281 3.77427 27.8934
2 7.40189 7.48107 0.255671
1 7.61429 9.39961 0.651966
1 7.35582 7.47388 2.22764
2 7.45153 9.40552 2.62324
1 9.40389 9.54123 2.90111
1 7.45191 9.44213 4.55931
2 9.39201 9.35988 4.95127
1 9.46875 7.444 5.3359
1 9.45219 9.36562 6.90672
2 9.23216 7.47947 7.25569
1 7.44874 7.48512 7.66388
1 9.56615 7.48023 9.21345
2 7.46408 7.47545 9.57874
1 7.48042 9.39535 10.0124
1 7.58601 7.50053 11.5741
2 7.52391 9.4016 11.9059
1 9.43609 9.39679 12.2566
1 7.38998 9.40624 13.7836
2 9.37427 9.40213 14.3328
1 9.39074 7.47988 14.5755
1 9.39531 9.40987 16.2274
2 9.4447 7.52265 16.583
1 7.47649 7.35009 16.9789
1 9.40617 7.47089 18.5476
2 7.52725 7.46858 18.9606
1 7.3459 9.40891 19.3206
1 7.47726 7.48478 20.8843
2 7.54147 9.4074 21.2948
1 9.5198 9.39569 21.7733
1 7.43201 9.40252 23.2081
2 9.18366 9.44212 23.6702
1 9.57489 7.53557 23.9527
1 9.43133 9.40513 25.6069
2 9.36772 7.47877 25.8888
1 7.4933 7.47974 26.3366
1 9.40467 7.47188 27.9241
2 7.40174 11.3637 0.259826
1 7.48789 13.2504 0.667095
1 7.61749 11.3291 2.23512
2 7.38094 13.2496 2.59825
1 9.40021 13.2554 2.95269
1 7.46041 13.2013 4.55554
2 9.39325 13.2391 5.01007
1 9.39188 11.3191 5.25061
1 9.45865 13.2955 6.9377
2 9.40084 11.3231 7.26813
1 7.47608 11.3249 7.63938
1 9.43152 11.2749 9.30907
2 7.46033 11.3303 9.57797
1 7.5359 13.2694 9.98351
1 7.58149 11.3041 11.5785
2 7.43687 13.2895 11.9388
1 9.40193 13.1046 12.3051
1 7.47204 13.2423 13.8959
2 9.40001 13.2824 14.2903
1 9.39896 11.3224 14.5706
1 9.39023 13.2384 16.2231
2 9.39121 11.3243 16.5839
1 7.44611 11.3661 16.9803
1 9.40652 11.3274 18.5531
2 7.52973 11.3546 18.9366
1 7.4576 13.2178 19.3427
1 7.43246 11.3488 20.8963
2 7.62819 13.2641 21.2329
1 9.39621 13.2488 21.6708
1 7.37547 13.2504 23.1246
2 9.40301 13.239 23.5955
1 9.44565 11.3056 23.9763
1 9.40034 13.249 25.5418
2 9.40211 11.3615 25.9293
1 7.49312 11.3174 26.3243
1 9.40033 11.1845 27.9797
2 7.44505 15.1703 0.248797
1 7.47902 17.0903 0.666672
1 7.61629 15.1633 2.23355
2 7.47859 17.0911 2.60673
1 9.4058 16.9525 2.981
1 7.48047 17.088 4.54973
2 9.39668 17.1297 4.96345
1 9.41663 15.1697 5.22131
1 9.45927 17.0375 6.92395
2 9.21535 15.1695 7.05388
1 7.53158 15.1638 7.75411
2 7.31012 15.1655 9.6427
1 7.52038 17.0545 9.97976
1 7.49526 15.1747 11.539
2 7.47648 17.0982 11.9361
1 9.40327 17.0908 12.3128
1 7.4765 17.0826 13.882
2 9.36585 17.0915 14.2483
1 9.40565 15.1764 14.6649
1 9.53154 17.0883 16.2372
2 9.3498 15.1224 16.6072
1 7.44177 15.1374 16.9937
1 9.36622 15.2194 18.5616
2 7.4846 15.0078 18.9033
1 7.43373 15.2298 20.8077
2 7.41182 17.0351 21.4141
1 9.39807 17.2232 21.6237
1 7.51703 17.0983 23.2461
2 9.37716 17.0081 23.6171
1 9.39871 15.1451 23.9926
1 9.41298 17.0945 25.5478
2 9.40324 15.1681 25.9623
1 7.47971 15.1711 26.3141
1 9.39785 15.171 27.9629
2 7.49451 19.0139 0.254002
1 7.46977 20.9299 0.665436
1 7.34303 19.0186 2.2322
2 7.52376 20.9789 2.60981
1 9.40798 20.9349 2.99132
1 7.48467 20.927 4.55289
2 9.40096 20.9271 4.96022
1 9.40458 19.0163 5.3362
1 9.40512 20.938 6.9839
2 9.41844 18.974 7.25603
1 7.48 19.0171 7.65593
1 9.37149 19.0856 9.21566
2 7.43076 18.9661 9.6035
1 7.65831 20.9848 9.96757
1 7.48372 19.0199 11.5399
2 7.44964 20.9322 11.9854
1 9.40283 20.9343 12.2365
1 7.4877 20.9405 13.9686
2 9.43393 20.9344 14.2199
1 9.40043 19.0176 14.6714
1 9.30099 20.9645 16.248
2 9.40276 19.0147 16.6207
1 7.48477 19.1349 16.9973
1 9.40433 19.0123 18.6501
2 7.45259 19.1424 18.9158
1 7.49631 20.9706 19.2603
1 7.59845 18.9029 20.8062
2 7.42986 20.9798 21.2412
1 9.40765 20.8014 21.6268
1 7.46795 20.9196 23.1968
2 9.31229 21.0116 23.6007
1 9.55163 19.0105 23.8987
1 9.53404 20.9152 25.5534
2 9.32676 18.9706 25.9351
1 7.45987 19.0062 26.3126
1 9.33881 19.0221 27.8553
2 7.46619 22.8216 0.291148
1 7.46974 24.7771 0.58562
1 7.48494 22.8585 2.22232
2 7.52517 24.7352 2.58696
1 9.41135 24.7773 2.98974
1 7.49801 24.787 4.54535
2 9.4083 24.788 4.95701
1 9.40033 22.8563 5.25261
1 9.3956 24.7667 6.98175
2 9.40315 22.854 7.05932
1 7.61697 22.8583 7.79084
2 7.2301 22.8548 9.66011
1 7.65937 24.7258 9.9643
1 7.5194 22.8554 11.5271
2 7.44707 24.7809 11.9583
1 9.4019 24.7788 12.2397
1 7.49585 24.7751 13.8862
2 9.40129 24.7801 14.2457
1 9.41632 22.854 14.6772
1 9.45248 24.7598 16.2274
2 9.27697 22.9162 16.575
1 7.45661 22.7206 16.9878
1 9.54034 22.7992 18.4617
2 7.50582 22.8964 18.9543
1 7.46483 24.7809 19.3456
1 7.43311 22.8957 20.8991
2 7.64409 24.784 21.2629
1 9.44152 24.7753 21.6563
1 7.38739 24.7797 23.1997
2 9.42345 24.7819 23.577
1 9.39897 22.873 24.0005
1 9.25953 24.7865 25.5594
2 9.40164 22.8553 25.9401
1 7.47108 22.9956 26.3112
1 9.39688 22.8534 27.8776
2 11.2773 -0.252208 0.276048
1 11.4598 1.70449 0.653145
1 11.3311 -0.207775 2.22064
2 11.2925 1.71154 2.65121
1 13.2483 1.70837 2.91183
1 11.324 1.71616 4.63216
2 13.277 1.71656 4.89522
1 13.2425 -0.207937 5.32422
1 13.1134 1.71541 6.89675
2 13.291 -0.257206 7.26997
1 11.3237 -0.0798838 7.64996
1 13.2489 -0.205634 9.21514
2 11.3705 -0.214993 9.62843
1 11.3299 1.68337 9.92038
1 11.3182 -0.218009 11.5489
2 11.3221 1.72781 11.9133
1 13.2383 1.7141 12.3194
1 11.3257 1.72046 13.8805
2 13.2455 1.71668 14.2716
1 13.2478 -0.211895 14.6583
1 13.242 1.71307 16.217
2 13.2433 -0.215259 16.6033
1 11.3241 -0.213673 16.9899
1 13.2465 -0.208654 18.5529
2 11.3242 -0.200875 18.9378
1 11.3227 1.71308 19.3208
1 11.3233 -0.210864 20.8872
2 11.3268 1.71161 21.2684
1 13.2469 1.71204 21.6581
1 11.3297 1.70942 23.2177
2 13.2465 1.71111 23.6252
1 13.2452 -0.208595 23.9833
1 13.2468 1.71191 25.6324
2 13.2497 -0.237267 25.9099
1 11.3515 -0.200549 26.3321
1 13.2757 -0.110153 27.9084
2 11.3223 3.62771 0.276049
1 11.1837 5.56197 0.616799
1 11.3242 3.64357 2.22797
2 11.3675 5.55676 2.48687
1 13.1598 5.56378 3.08801
2 13.3584 5.49808 4.97234
1 13.1927 3.65217 5.32213
1 13.1778 5.59764 6.88089
2 13.2979 3.68166 7.27196
1 11.3249 3.52196 7.65689
1 13.2124 3.67689 9.22817
2 11.3226 3.50307 9.60015
1 11.3321 3.73116 11.4685
2 11.3972 5.52176 12.0771
1 13.3466 5.57035 12.4203
1 11.2706 5.56813 13.904
2 13.0325 5.51994 14.3124
1 13.2904 3.66073 14.6438
1 13.2776 5.55397 16.1948
2 13.2412 3.63141 16.6059
1 11.3319 3.63396 16.9874
1 13.245 3.63489 18.5551
2 11.3229 3.63473 18.9357
1 11.3252 5.56127 19.3221
1 11.323 3.62884 20.8814
2 11.3225 5.5251 21.2491
1 13.2437 5.56324 21.6596
1 11.3212 5.63675 23.2231
2 13.2882 5.51926 23.5986
1 13.2498 3.62768 23.9867
1 13.2398 5.57243 25.5355
2 13.2458 3.67114 25.9152
1 11.3306 3.63567 26.3317
1 13.2502 3.49865 27.8948
2 11.4319 7.48307 0.258417
1 11.1853 9.39726 0.650031
1 11.3136 7.46419 2.22072
2 11.3989 9.35583 2.62124
1 13.2615 9.39322 2.99957
1 11.3109 9.40201 4.55202
2 13.2027 9.45148 4.94339
1 13.3357 7.45282 5.31497
1 13.1991 9.36437 6.89779
2 13.3808 7.48246 7.26851
1 13.0903 7.47881 9.14371
2 11.3529 7.47887 9.65764
1 11.179 7.47517 11.4597
2 11.4268 9.38574 12.0621
1 13.2641 9.39299 12.3136
1 11.298 9.39646 13.9025
2 13.1741 9.43588 14.255
1 13.4235 7.42466 14.6283
1 13.3825 9.39465 16.221
2 13.1705 7.43581 16.6182
1 11.3164 7.47699 16.9932
1 13.2507 7.48534 18.5496
2 11.3239 7.47514 18.9629
1 11.3224 9.40171 19.2696
1 11.3234 7.49429 20.9846
2 11.3252 9.43512 21.0934
1 13.1335 9.39225 21.7691
2 13.4767 9.43815 23.6433
1 13.0724 7.53607 23.9609
1 13.2107 9.4 25.5251
2 13.2761 7.48039 25.9582
1 11.314 7.48379 26.2584
1 13.267 7.48074 27.8882
2 11.3989 11.363 0.255792
1 11.308 13.2447 0.670168
1 11.1879 11.3232 2.23283
2 11.4343 13.2479 2.60163
1 13.2678 13.2455 2.98985
1 11.3097 13.2471 4.54111
2 13.2363 13.2474 4.9396
1 13.2458 11.3314 5.3297
1 13.1979 13.2756 6.9012
2 13.2469 11.3254 7.26868
1 11.3209 11.2982 7.67198
1 13.2196 11.2795 9.23399
2 11.3525 11.5113 9.55341
1 11.2619 13.3269 9.964
1 11.1827 11.226 11.4702
2 11.3575 13.2823 11.9295
1 13.2155 13.2531 12.3329
1 11.3053 13.2275 13.8748
2 13.1708 13.2047 14.255
1 13.256 11.3244 14.6641
1 13.396 13.2417 16.2201
2 13.1371 11.3217 16.5994
1 11.3019 11.3238 16.9876
1 13.2583 11.3263 18.5399
2 11.3266 11.3266 18.9341
1 11.3426 13.2374 19.3419
1 11.3697 11.3472 20.9059
2 11.1696 13.24 21.2405
1 11.4236 13.2418 23.1283
2 13.2508 13.2308 23.7402
1 13.2056 11.3074 23.9646
1 13.2472 13.2368 25.5872
2 13.2462 11.3176 25.9356
1 11.3173 11.3145 26.3216
1 13.2606 11.3241 27.8803
2 11.3135 15.128 0.245574
1 11.5104 17.1374 0.633339
1 11.1944 15.1762 2.22203
2 11.3353 17.1396 2.63727
1 13.2492 17.097 2.90758
1 11.3222 17.083 4.5614
2 13.245 17.087 4.91817
1 13.224 15.1721 5.34149
1 13.1987 17.0712 6.9105
2 13.4171 15.1702 7.23336
1 13.1939 15.1693 9.12184
2 11.5021 15.1821 9.78603
1 11.3192 17.0631 9.94842
1 11.3009 15.1803 11.587
2 11.3209 17.096 11.9632
1 13.2469 17.0818 12.3146
1 11.3172 17.0967 13.9641
2 13.2362 17.1399 14.2429
1 13.3787 15.1624 14.651
1 13.115 17.0955 16.2254
2 13.2108 15.1629 16.6223
1 11.3085 15.3021 16.9857
1 13.2413 15.1622 18.5472
2 11.309 15.1275 18.9564
1 11.3104 17.0597 19.2619
1 11.3773 15.1241 20.8986
2 11.3657 17.0088 21.2282
1 13.2405 17.1024 21.6715
1 11.326 17.2241 23.2159
2 13.245 16.9788 23.6177
1 13.2475 15.1369 23.9723
1 13.2451 17.1009 25.6185
2 13.2484 15.1413 25.9101
1 11.3251 15.1735 26.3198
1 13.2476 15.2472 27.8825
2 11.0571 18.9806 0.330344
1 11.5132 20.88 0.532108
1 11.3761 19.027 2.1879
2 11.2995 20.9371 2.62106
1 13.2768 20.9805 2.88596
1 11.3267 20.9325 4.55748
2 13.2418 20.9361 4.92046
1 13.2485 19.0107 5.28321
1 13.24 20.9282 6.89929
2 13.2447 19.007 7.12944
1 11.4202 19.0151 7.7549
2 11.198 18.9545 9.63498
1 11.179 20.9549 9.95308
1 11.3437 19.0144 11.5208
2 11.3541 20.9361 11.9658
1 13.2486 20.934 12.317
1 11.328 20.9382 13.8906
2 13.2483 20.9347 14.272
1 13.2388 19.0207 14.6644
1 13.197 20.9718 16.2371
2 13.2974 19.063 16.6009
1 11.3258 18.8947 16.9965
1 13.212 19.057 18.5614
2 11.3499 18.8834 18.9319
1 11.1951 19.1129 20.8917
2 11.3893 21.0146 21.4372
1 13.3436 20.917 21.7525
1 11.2873 20.7978 23.3405
2 13.1097 21.0405 23.619
1 13.2923 19.0616 23.8998
1 13.1354 20.9185 25.6375
2 13.2922 18.9711 25.7786
1 11.4429 19.1482 26.3521
2 11.2853 22.9294 0.287788
1 11.3209 24.7868 0.66424
1 11.3317 22.8438 2.20743
2 11.3355 24.779 2.61272
1 13.2976 24.7236 2.95381
1 11.3284 24.7807 4.55264
2 13.2389 24.7806 4.93588
1 13.2424 22.8531 5.32379
1 13.2428 24.7671 6.88708
2 13.2205 22.8544 7.27186
1 11.1889 22.8563 7.79243
1 13.3216 22.8522 9.20242
2 11.5936 22.8551 9.65506
1 11.1508 24.7251 9.96917
1 11.2767 22.8519 11.5187
2 11.3545 24.7754 11.9673
1 13.2492 24.7765 12.3228
1 11.3218 24.7744 13.8943
2 13.2502 24.7818 14.2723
1 13.2243 22.8576 14.6725
1 13.1994 24.7479 16.2326
2 13.4129 22.8607 16.5706
1 13.1033 22.8012 18.4658
2 11.3215 23.019 19.0359
1 11.3217 24.8133 19.3125
1 11.3319 22.7735 20.8385
2 11.3338 24.7676 21.2637
1 13.243 24.775 21.6518
1 11.3313 24.7746 23.2168
2 13.2467 24.7765 23.5999
1 13.2837 22.8399 23.9874
1 13.2524 24.7865 25.5493
2 13.2794 22.9342 25.9211
1 11.3388 22.7275 26.323
1 13.2889 22.806 27.9281
2 15.2234 -0.0829252 0.239945
1 15.0385 1.74327 0.649668
1 15.1621 -0.261149 2.11928
2 15.2038 1.70187 2.62055
1 17.0958 1.70744 2.99405
1 15.1729 1.71097 4.55141
2 17.0936 1.71662 4.943
1 17.0869 -0.211595 5.31958
1 17.0922 1.71393 6.88488
2 17.098 -0.206308 7.27082
1 15.1758 -0.213105 7.65697
1 17.0854 -0.216383 9.21735
2 15.1681 -0.207826 9.60639
1 15.1641 1.71529 9.99022
1 15.1679 -0.209776 11.5533
2 15.1637 1.71178 11.9351
1 17.085 1.71129 12.3238
1 15.1616 1.71648 13.8833
2 17.0547 1.71638 14.2526
1 17.0955 -0.206813 14.6594
1 17.2263 1.71415 16.2298
2 17.0471 -0.25342 16.6039
1 15.1596 -0.215805 16.989
1 17.0918 -0.20486 18.5474
2 15.1678 -0.20884 18.9385
1 15.1686 1.71348 19.3215
1 15.1682 -0.210284 20.8849
2 15.1681 1.71207 21.2703
1 17.0914 1.71231 21.6537
1 15.1669 1.71234 23.2194
2 17.0897 1.7123 23.6025
1 17.0901 -0.210143 23.9879
1 17.0895 1.71013 25.5526
2 17.0925 -0.205497 25.9343
1 15.1661 -0.226889 26.3438
1 17.0722 -0.259963 27.8941
2 15.2132 3.68323 0.270546
1 15.1735 5.56571 0.664769
1 15.1628 3.63459 2.21912
2 15.1667 5.52428 2.59288
1 17.1872 5.56093 3.08232
1 15.1682 5.69146 4.55843
2 16.9814 5.50339 4.96597
1 17.1388 3.65348 5.31429
1 17.1109 5.55217 6.86631
2 17.0947 3.62754 7.27514
1 15.1726 3.6397 7.65429
1 17.0839 3.6418 9.21946
2 15.1604 3.62716 9.60367
1 15.1563 5.5666 9.93259
1 15.1685 3.63867 11.5638
2 15.1688 5.53174 11.7577
1 16.9783 5.56576 12.4295
2 17.2858 5.51759 14.2769
1 17.0615 3.66031 14.6547
1 17.2106 5.55152 16.2128
2 16.9809 3.62841 16.5993
1 15.1465 3.63818 16.987
1 17.103 3.63472 18.5337
2 15.1713 3.63435 18.9367
1 15.1685 5.55165 19.3242
1 15.1676 3.63454 20.8858
2 15.1682 5.55651 21.2719
1 17.0917 5.55816 21.653
1 15.1722 5.55802 23.2199
2 17.0938 5.54924 23.6019
1 17.0905 3.63334 23.9882
1 17.0851 5.54807 25.5536
2 17.0827 3.63083 25.9362
1 15.1652 3.63016 26.3248
1 17.0974 3.63786 27.8888
2 15.1755 7.48179 0.29878
1 15.1685 9.39996 0.654308
1 15.1682 7.47172 2.30059
2 15.1706 9.43412 2.58192
1 17.0929 9.39621 2.99453
1 15.1648 9.26695 4.5681
2 17.1045 9.4557 4.91463
1 16.9888 7.45373 5.30633
1 17.1658 9.40167 6.88338
2 17.0923 7.43326 7.29991
1 15.1955 7.47202 7.58921
1 17.0999 7.48884 9.21945
2 15.1495 7.48572 9.60129
1 15.1543 9.39153 9.99296
1 15.1693 7.46889 11.6533
2 15.1807 9.44 11.9309
1 17.1247 9.45358 12.3183
1 15.1713 9.31375 13.9704
2 17.1697 9.43079 14.2554
1 16.9193 7.42535 14.6332
1 16.9482 9.4031 16.2189
2 17.1154 7.48611 16.621
1 15.1631 7.61658 16.8923
1 17.0893 7.48146 18.5436
2 15.1683 7.44167 18.9475
1 15.1659 9.39667 19.2444
1 15.1666 7.4852 20.8891
2 15.1398 9.40104 21.2486
1 17.0824 9.4214 21.6613
1 15.243 9.45247 23.2137
2 17.0725 9.23411 23.5497
1 17.0993 7.44676 24.003
1 17.2277 9.50418 25.4696
2 17.0464 7.43843 25.9351
1 15.1703 7.48207 26.3236
1 17.0937 7.48978 27.8771
2 15.1669 11.3181 0.269863
1 15.1763 13.2242 0.663132
1 15.1726 11.3315 2.22169
2 15.1913 13.2503 2.61158
1 17.1873 13.2474 3.08245
1 15.1328 13.2483 4.55138
2 16.9259 13.2474 4.97193
1 17.1456 11.3592 5.31941
1 17.1136 13.2496 6.87295
2 17.0428 11.3669 7.27504
1 15.1585 11.3315 7.65679
1 17.0991 11.3206 9.22956
2 15.1591 11.3184 9.5988
1 15.1826 13.2496 10.0041
1 15.227 11.3558 11.5597
2 14.9992 13.2156 11.8976
1 15.2602 13.3831 13.8844
2 17.1707 13.215 14.4071
1 17.0887 11.331 14.642
1 16.9515 13.2429 16.2599
2 17.1952 11.3195 16.5901
1 15.1678 11.3221 16.9514
1 17.0758 11.3275 18.5328
2 15.173 11.319 19.0067
1 15.1432 13.2444 19.2598
1 15.1218 11.3513 20.9155
2 15.3426 13.2486 21.2146
1 17.1371 13.276 21.6676
1 15.1052 13.2014 23.1365
2 17.0649 13.4035 23.5652
1 17.0833 13.1593 25.4507
2 17.0518 11.3731 26.0779
1 15.1703 11.3234 26.3004
1 17.0951 11.319 27.9212
2 15.1591 15.06 0.263687
1 15.1289 17.1192 0.592163
1 15.1734 15.1805 2.19951
2 15.1698 17.085 2.67277
1 17.0925 17.0933 2.90612
1 15.169 17.0875 4.57139
2 17.0952 17.0846 4.91953
1 17.1362 15.1391 5.31204
1 17.0856 17.0912 6.88215
2 17.0997 15.1731 7.27348
1 15.2079 15.1653 7.66225
1 17.0706 15.1618 9.22899
2 15.1499 15.1758 9.62165
1 15.1143 17.1147 9.97839
1 15.2131 15.1341 11.6437
2 15.1751 17.1185 11.9141
1 17.0828 17.0812 12.3337
1 15.172 16.9769 13.8915
2 17.1342 17.1362 14.2956
1 16.9575 15.157 14.6276
1 17.085 17.0852 16.2921
2 17.1655 15.1757 16.5927
1 15.1767 15.0307 16.8984
1 17.0978 15.2933 18.5785
2 15.1226 15.1615 18.9456
1 15.299 17.0971 19.316
1 15.1299 15.1337 20.8911
2 15.1378 17.0543 21.2721
1 17.1212 17.0417 21.5701