1800
Atoms. Timestep: 496
2 -0.208318 -0.186625 0.282761
1 -0.206821 1.80954 0.754299
1 -0.204715 -0.234238 2.22183
2 -0.204838 1.55467 2.64751
1 1.6867 1.76248 2.98723
1 -0.205195 1.73969 4.5437
2 1.71667 1.71933 4.94334
1 1.70917 -0.192222 5.33448
1 1.72035 1.73103 6.89054
2 1.75617 -0.131147 7.26073
1 -0.20324 -0.326888 7.65324
1 1.71979 -0.342144 9.22881
2 -0.210423 -0.123019 9.59803
1 -0.214043 1.72923 9.99856
1 -0.330741 -0.215358 11.5629
2 -0.156345 1.72958 11.918
1 1.72166 1.72529 12.3296
1 -0.206995 1.84265 13.8971
2 1.76143 1.67324 14.2714
1 1.72012 -0.208833 14.6558
1 1.71006 1.7197 16.2147
2 1.7152 -0.204829 16.6035
1 -0.210511 -0.199729 16.9892
1 1.72341 -0.208282 18.5503
2 -0.161896 -0.25276 18.9305
1 -0.337532 1.69244 19.313
1 -0.207518 -0.201928 20.8806
2 -0.183094 1.69878 21.2606
1 1.7165 1.70401 21.6737
1 -0.155835 1.81938 23.2321
2 1.77489 1.84192 23.5716
1 1.71172 1.62505 25.4539
2 1.71547 -0.202859 26.0738
1 -0.196332 -0.198434 26.2978
1 1.7159 -0.204426 27.9123
2 -0.175136 3.5907 0.114184
1 -0.342852 5.45042 0.74372
2 -0.174269 5.72309 2.6682
1 1.69351 5.51547 2.98996
1 -0.206837 5.53756 4.54798
2 1.71783 5.56019 4.95055
1 1.71247 3.63955 5.32415
1 1.7237 5.56304 6.89728
2 1.71455 3.64097 7.27562
1 -0.205244 3.63858 7.66535
1 1.71706 3.64559 9.22636
2 -0.2064 3.64147 9.62786
1 -0.196152 5.56372 9.99009
1 -0.201821 3.64586 11.6305
2 -0.206053 5.59637 11.9174
1 1.71718 5.56291 12.3248
1 -0.203354 5.42709 13.9009
2 1.76194 5.59986 14.2717
1 1.581 3.63595 14.644
1 1.70312 5.55072 16.2178
2 1.75246 3.63209 16.6227
1 -0.20475 3.65216 16.9415
1 1.69448 3.68788 18.5636
2 -0.150545 3.51916 18.9074
1 -0.213022 3.71879 20.8593
2 -0.206671 5.59792 21.3843
1 1.70278 5.55241 21.6384
1 -0.212839 5.42708 23.2544
2 1.76249 5.60497 23.5953
1 1.58289 3.66663 23.9717
1 1.7155 5.5559 25.5441
2 1.76364 3.624 25.9464
1 -0.173338 3.63996 26.2177
1 1.71487 3.63446 27.8884
2 -0.162722 7.52129 0.286151
1 -0.201502 9.40994 0.665929
1 -0.210955 7.51005 2.21677
2 -0.207779 9.41084 2.61407
1 1.71403 9.40883 3.00662
1 -0.213032 9.3987 4.56102
2 1.66764 9.36009 4.95043
1 1.71945 7.47409 5.3303
1 1.72852 9.40188 6.8924
2 1.71804 7.48145 7.28439
1 -0.198677 7.48276 7.67016
1 1.64151 7.48367 9.22073
2 -0.240131 7.48159 9.61414
1 -0.229866 9.40405 10.015
1 -0.24942 7.51042 11.5646
2 0.00731326 9.36928 11.9002
1 1.77067 9.39452 12.327
1 -0.31848 9.4151 13.7763
2 1.65902 9.40857 14.246
1 1.7213 7.49391 14.6574
1 1.86232 9.408 16.234
2 1.67713 7.44246 16.6007
1 -0.211445 7.45626 17.0027
1 1.6893 7.43995 18.5571
2 -0.205883 7.63353 18.8992
1 -0.204549 9.40042 19.3348
1 -0.203562 7.39414 20.7914
2 -0.203669 9.40587 21.2569
1 1.70961 9.40759 21.6511
1 -0.206444 9.40003 23.2011
2 1.6729 9.36264 23.5976
1 1.71688 7.48134 23.981
1 1.72415 9.40621 25.5391
2 1.71622 7.48296 25.9272
1 -0.202396 7.46509 26.3215
1 1.71304 7.47753 27.8754
2 -0.212155 11.3244 0.287127
1 -0.205389 13.2461 0.666073
1 -0.20595 11.325 2.23058
2 -0.205937 13.2442 2.61323
1 1.71352 13.2388 3.00512
1 -0.212189 13.2494 4.56149
2 1.67101 13.2873 4.94853
1 1.84597 11.3242 5.31778
1 1.72155 13.2426 6.88972
2 1.68474 11.3248 7.29646
1 -0.210771 11.3245 7.66131
1 1.7241 11.3166 9.22913
2 -0.17368 11.3242 9.58909
1 -0.210336 13.2369 10.0043
1 -0.377622 11.2722 11.5846
2 -0.166137 13.2846 11.9419
1 1.71354 13.2413 12.3246
1 -0.207006 13.2394 13.8857
2 1.71736 13.2411 14.2763
1 1.71786 11.321 14.6594
1 1.70377 13.2693 16.2424
2 1.65187 11.37 16.5896
1 -0.217405 11.348 17.0015
1 1.67793 11.3717 18.5565
2 -0.20557 11.1644 18.9013
1 -0.206557 11.4194 20.7933
2 -0.207987 13.2371 21.4161
1 1.69711 13.2485 21.6328
1 -0.212802 13.2491 23.2536
2 1.67686 13.289 23.5945
1 1.83155 11.3246 23.9722
1 1.72245 13.2356 25.5375
2 1.68625 11.3218 25.9494
1 -0.204846 11.3273 26.3154
1 1.6987 11.3242 27.8773
2 -0.206853 15.1686 0.284872
1 -0.206352 17.0889 0.666971
1 -0.202252 15.1674 2.23179
2 -0.204556 17.0897 2.61399
1 1.72077 17.0937 3.00275
1 -0.211091 17.0847 4.56107
2 1.67492 17.0452 4.94584
1 1.71025 15.1671 5.33108
1 1.72143 17.0914 6.89193
2 1.71646 15.1663 7.27604
1 -0.20446 15.1675 7.65965
1 1.71069 15.1661 9.22195
2 -0.207439 15.1588 9.60798
1 -0.204755 17.0559 9.99926
1 -0.202352 15.1729 11.5569
2 -0.206809 17.1059 11.9375
1 1.70664 17.096 12.3241
1 -0.205869 17.0937 13.8882
2 1.71811 17.0888 14.2733
1 1.71203 15.1667 14.6229
1 1.71292 17.0737 16.2371
2 1.70243 15.1734 16.4641
1 -0.206161 15.1261 17.1693
2 -0.206346 15.3238 18.9564
1 -0.20793 17.0817 19.3052
1 -0.202392 15.0517 20.7441
2 -0.207934 17.0742 21.2624
1 1.70645 17.0747 21.6385
1 -0.211314 17.0845 23.2055
2 1.68317 17.0906 23.5737
1 1.72097 15.1755 23.9835
1 1.84677 17.0876 25.556
2 1.67328 15.1213 25.9273
1 -0.210974 15.163 26.3122
1 1.71179 15.1755 27.8704
2 -0.202888 19.0088 0.282127
1 -0.201993 20.9328 0.664142
1 -0.204227 19.0057 2.22706
2 -0.202314 20.8999 2.59054
1 1.7191 20.9387 3.01998
1 -0.21792 21.0534 4.57039
2 1.64921 20.8666 4.94588
1 1.85412 18.9973 5.31761
1 1.72241 20.9289 6.87324
2 1.68429 19.0073 7.29886
1 -0.209339 19.0331 7.68241
1 1.68668 19.0558 9.23962
2 -0.206713 18.8471 9.57975
1 -0.205009 19.1075 11.4677
2 -0.202739 20.9342 12.0779
1 1.71485 20.9368 12.3195
1 -0.204216 20.9236 13.9227
2 1.68558 20.8916 14.2706
1 1.71658 19.0045 14.654
1 1.72408 20.9347 16.2128
2 1.72428 19.0107 16.5993
1 -0.170008 19.0132 16.9887
1 1.71116 19.0042 18.5486
2 -0.216309 19.0072 18.9286
1 -0.208201 20.9293 19.314
1 -0.211046 19.0003 20.873
2 -0.203407 20.8997 21.2413
1 1.7082 20.9403 21.6545
1 -0.198231 21.0642 23.2224
2 1.76284 20.882 23.5966
1 1.72536 19.0009 23.9875
1 1.70688 20.9444 25.5372
2 1.67446 19.0556 25.9292
1 -0.203956 19.0095 26.3132
1 1.72179 19.0064 27.8722
2 -0.202844 22.851 0.285549
1 -0.206347 24.7729 0.660804
1 -0.203418 22.8526 2.30547
2 -0.194962 24.7961 2.60143
1 1.70851 24.7621 3.01187
1 -0.202611 24.6467 4.66469
2 1.74823 24.8769 4.9337
1 1.70903 22.8571 5.29174
1 1.58753 24.764 6.97334
2 1.75355 22.7788 7.31861
1 -0.205477 22.9707 7.58835
1 1.68409 22.9551 9.254
2 -0.256193 22.9352 9.59081
1 -0.0820041 24.7973 9.90307
1 -0.194338 22.7619 11.4648
2 -0.194615 24.7032 11.9474
1 1.72425 24.7625 12.256
1 -0.205195 24.7831 13.8776
2 1.68035 24.8158 14.2523
1 1.79783 22.8547 14.6495
1 1.72012 24.7729 16.2101
2 1.68583 22.8542 16.6244
1 -0.207031 22.8519 16.9963
1 1.72029 22.853 18.5539
2 -0.205866 22.8507 18.9587
1 -0.197698 24.7664 19.3191
1 -0.200088 22.8581 20.9596
2 -0.191769 24.8036 21.2445
1 1.81711 24.8012 21.7671
1 -0.212785 24.6786 23.2321
2 1.60719 24.6663 23.5967
1 1.621 22.8479 23.9616
1 1.74439 24.8778 25.4268
2 1.74523 22.8695 25.9478
1 -0.19339 22.8625 26.2363
1 1.71102 22.8569 27.8742
2 3.64002 -0.207654 0.278231
1 3.64146 1.71651 0.659111
1 3.63512 -0.189379 2.22977
2 3.63909 1.72041 2.61349
1 5.59008 1.76285 2.98696
1 3.63796 1.71113 4.55809
2 5.55778 1.71765 4.94623
1 5.56916 -0.19261 5.33664
1 5.55521 1.72388 6.89554
2 5.51663 -0.162164 7.27914
1 3.63464 -0.207151 7.66595
1 5.57248 -0.204349 9.22028
2 3.68361 -0.165845 9.60792
1 3.63983 1.71444 9.99177
1 3.63506 -0.201573 11.5519
2 3.64336 1.7248 11.9399
1 5.59007 1.76013 12.3115
1 3.64724 1.71098 13.8846
2 5.56103 1.7252 14.2713
1 5.56929 -0.15789 14.6712
1 5.55551 1.72424 16.2212
2 5.51389 -0.168733 16.6016
1 3.63504 -0.203034 16.9863
1 5.56191 -0.217788 18.5407
2 3.64002 -0.202178 18.9402
1 3.63694 1.71526 19.3181
1 3.63233 -0.215749 20.9081
2 3.63642 1.72146 21.2621
1 5.55845 1.71974 21.6124
1 3.62632 1.65682 23.2376
2 5.54601 1.71145 23.4578
1 5.51136 -0.147025 24.056
2 5.55544 -0.370215 25.9625
1 3.65433 -0.164105 26.275
1 5.55335 -0.174802 27.8575
2 3.64014 3.64003 0.286804
1 3.63844 5.55296 0.664868
1 3.63859 3.63791 2.22984
2 3.64054 5.55861 2.61756
1 5.58946 5.51346 2.98742
1 3.63889 5.56421 4.56007
2 5.55881 5.56023 4.94868
1 5.56148 3.63863 5.32444
1 5.55343 5.56268 6.89821
2 5.55728 3.63987 7.27553
1 3.63999 3.64015 7.66215
1 5.56559 3.64517 9.24089
2 3.63711 3.6008 9.59757
1 3.63753 5.48648 9.99845
1 3.64245 3.64376 11.5447
2 3.64341 5.55754 11.9337
1 5.58691 5.51994 12.3088
1 3.64627 5.57143 13.882
2 5.55851 5.56004 14.2706
1 5.56455 3.63873 14.6503
1 5.56233 5.54923 16.2181
2 5.56117 3.63723 16.6011
1 3.64226 3.63448 16.9912
1 5.55986 3.63841 18.5498
2 3.63677 3.63724 18.9364
1 3.6333 5.55349 19.3202
1 3.63867 3.63583 20.8851
2 3.63867 5.5542 21.2675
1 5.56053 5.55441 21.6526
1 3.64693 5.55884 23.212
2 5.56294 5.53874 23.5965
1 5.55727 3.54028 24.0685
1 5.55706 5.57775 25.535
2 5.55654 3.79586 25.9622
1 3.67028 3.5895 26.3064
1 5.57049 3.61539 27.872
2 3.59636 7.43692 0.281875
1 3.75593 9.40288 0.655708
1 3.64518 7.47565 2.22433
2 3.60345 9.36892 2.61785
1 5.55191 9.40525 2.92742
1 3.63922 9.53021 4.57937
2 5.60623 9.36201 4.92727
1 5.5587 7.4759 5.32939
1 5.54398 9.39525 6.88713
2 5.55884 7.48082 7.28437
1 3.63826 7.48097 7.55238
1 5.63751 7.47763 9.21995
1 3.63919 9.4786 9.99952
1 3.64056 7.47985 11.668
2 3.6505 9.40346 11.9527
1 5.5585 9.40363 12.3252
1 3.63277 9.39094 13.9631
2 5.54898 9.37762 14.2645
1 5.54891 7.47394 14.6546
1 5.46252 9.29359 16.1951
2 5.60742 7.41712 16.6097
1 3.6393 7.63294 16.974
1 5.55569 7.48426 18.5465
2 3.63482 7.44692 18.9507
1 3.63482 9.40251 19.2473
1 3.63473 7.46774 20.8816
2 3.59588 9.33086 21.2253
1 5.55889 9.52043 21.6434
1 3.63633 9.53586 23.2147
2 5.56538 9.32039 23.5965
1 5.56907 7.47241 23.9878
1 5.68166 9.40545 25.6312
2 5.51734 7.41426 25.9166
1 3.63456 7.4836 26.3168
1 5.56427 7.61872 27.8858
2 3.53249 11.3219 0.290392
1 3.77109 13.2394 0.652562
1 3.65207 11.3229 2.29021
2 3.60256 13.276 2.61497
1 5.55168 13.244 2.9286
1 3.63405 13.117 4.57192
2 5.56818 13.2885 4.90041
1 5.43637 11.3262 5.32315
1 5.68348 13.2443 6.89813
2 5.5501 11.2781 7.30119
1 3.63337 11.3179 7.58798
1 5.55974 11.3223 9.22517
2 3.6413 11.3656 9.57816
1 3.64385 13.2548 9.99817
1 3.63575 11.3125 11.5411
2 3.59717 13.1944 11.9399
1 5.56196 13.3654 12.3206
1 3.63319 13.2581 13.8825
2 5.50458 13.2326 14.3417
1 5.65403 11.3175 14.51
1 5.56713 13.3507 16.2587
1 3.52678 11.2253 17.0117
1 5.55157 11.4289 18.8095
2 3.58255 11.3186 18.934
1 3.73511 13.2754 19.298
1 3.77175 11.3282 20.97
2 3.57148 13.3182 21.2744
1 5.56037 13.1197 21.5675
1 3.63728 13.1071 23.2191
2 5.55343 13.2785 23.6213
1 5.4357 11.3157 23.8852
1 5.55986 13.2473 25.6054
2 5.55163 11.3657 25.8777
1 3.64521 11.3262 26.2528
1 5.55567 11.322 27.9148
2 3.59057 15.1777 0.304963
1 3.63527 17.0946 0.590525
1 3.64428 15.1653 2.22443
2 3.63847 17.0569 2.57251
1 5.54934 17.0905 3.0046
1 3.64 17.2243 4.57182
2 5.60296 17.0468 4.94615
1 5.57547 15.1631 5.33771
1 5.54819 17.0886 6.88936
2 5.51342 15.2084 7.29881
1 3.63206 15.1708 7.66028
1 5.56238 15.1624 9.29293
2 3.60582 15.1673 9.58794
1 3.64415 17.0879 9.99424
1 3.76705 15.1655 11.5668
2 3.59244 17.1311 11.9395
1 5.55394 16.9565 12.3133
1 3.63902 17.0815 13.8832
2 5.55968 17.1091 14.2912
1 5.55286 15.1681 14.5884
1 5.55656 17.097 16.2242
2 5.54425 15.2261 16.5703
1 3.54612 15.1558 17.0776
1 5.58797 15.0402 18.5465
2 3.7691 15.2269 18.9579
1 3.59372 17.0732 19.3151
1 3.61431 15.1721 20.8544
2 3.59982 17.047 21.2883
1 5.56001 17.2118 21.6373
1 3.63425 17.0994 23.2798
2 5.54714 17.1046 23.5941
1 5.68401 15.1753 23.9765
1 5.43681 17.0924 25.5522
2 5.57076 15.1573 25.9339
1 3.63619 15.2912 26.3075
1 5.55979 15.0363 27.8881
2 3.63999 19.0416 0.324507
1 3.64471 20.9435 0.665661
1 3.63331 19.0009 2.30906
2 3.59119 20.8939 2.55771
1 5.54551 21.0653 2.99718
1 3.63514 20.9399 4.608
2 5.62991 20.896 4.94094
1 5.43209 19.0061 5.32431
1 5.68048 20.9352 6.89842
2 5.54705 18.9625 7.30177
1 3.62939 19.0068 7.58917
1 5.55372 19.0174 9.22089
2 3.63267 19.009 9.58578
1 3.63542 20.9292 9.98858
1 3.63623 19.0124 11.5515
2 3.63597 20.9015 11.9188
1 5.55137 20.9717 12.3488
1 3.68809 21.1041 13.914
2 5.59674 20.7176 14.2317
1 5.56107 18.9648 14.6724
1 5.5463 21.0328 16.1103
2 5.55881 19.0328 16.623
1 3.64314 19.0139 16.9836
1 5.55809 19.0137 18.6209
2 3.60598 19.0074 18.9135
1 3.64522 20.9326 19.3216
1 3.7681 19.0071 20.8927
2 3.59464 20.9769 21.2623
1 5.55983 20.8027 21.638
1 3.64708 20.9278 23.2049
2 5.55782 20.9727 23.6181
1 5.54825 19.0159 23.9118
1 5.56653 20.942 25.5456
2 5.6018 19.0548 25.9053
1 3.63882 18.8811 26.3006
1 5.54937 19.0051 27.864
2 3.60647 22.8566 0.270594
1 3.64422 24.7703 0.668668
1 3.7644 22.8558 2.32515
2 3.59564 24.8484 2.59401
1 5.5557 24.6435 2.9914
1 3.63972 24.6314 4.56901
2 5.56478 24.8538 4.93857
1 5.43358 22.8524 5.24476
1 5.68693 24.7709 6.90092
2 5.48826 22.8566 7.28761
1 3.62712 22.8595 7.59586
1 5.57757 22.8484 9.21119
2 3.68784 22.8115 9.61225
1 3.52082 24.7691 9.98076
1 3.63608 22.856 11.6249
2 3.67181 24.8082 11.9378
1 5.56433 24.7404 12.3467
1 3.68542 24.6048 13.9146
2 5.567 24.9902 14.2122
1 5.68628 24.6591 16.1245
2 5.54597 22.8016 16.7777
1 3.64515 22.8503 16.8902
1 5.56128 22.862 18.5964
2 3.63588 22.8507 18.9147
1 3.63808 24.7735 19.2783
1 3.63284 22.8687 20.8931
2 3.64178 24.7691 21.1189
1 5.46467 24.7806 21.7444
2 5.72795 24.7902 23.6304
1 5.51475 22.8894 23.9725
1 5.5364 24.7421 25.5188
2 5.56184 22.8504 25.952
1 3.63947 22.862 26.3068
1 5.55401 22.8487 27.9544
2 7.44394 -0.143807 0.286272
1 7.47776 1.81057 0.750678
1 7.4966 -0.234679 2.21469
2 7.48091 1.55733 2.64384
1 9.37419 1.76818 2.99152
1 7.47527 1.73503 4.54183
2 9.35857 1.66926 4.94569
1 9.39081 -0.214852 5.33326
1 9.41589 1.72983 6.88916
2 9.44751 -0.160311 7.27736
1 7.48123 -0.336273 7.65088
1 9.39828 -0.205342 9.22064
2 7.4832 -0.152542 9.63333
1 7.48119 1.81358 10.0856
1 7.47846 -0.24029 11.5558
2 7.48137 1.55609 11.9739
1 9.37288 1.76365 12.311
1 7.48198 1.73944 13.8689
2 9.40258 1.71349 14.2715
1 9.39249 -0.20866 14.6579
1 9.40594 1.72293 16.2172
2 9.4464 -0.160831 16.603
1 7.4729 -0.335996 16.9744
1 9.39976 -0.210639 18.5455
2 7.48099 -0.171076 18.9567
1 7.48616 1.72187 19.3257
1 7.48093 -0.20517 20.8873
2 7.50124 1.71795 21.273
1 9.4946 1.71666 21.7395
1 7.4369 1.71213 23.226
2 9.23734 1.72004 23.6254
1 9.47466 -0.173284 23.9858
1 9.46843 1.69069 25.5333
2 9.22881 -0.177175 25.875
1 7.42444 -0.158951 26.3129
1 9.4943 -0.33911 27.7981
2 7.48426 3.64065 0.144525
1 7.4838 5.45655 0.758606
2 7.48054 5.71821 2.64755
1 9.37356 5.50731 2.99193
1 7.4753 5.54185 4.54278
2 9.36055 5.60246 4.94633
1 9.53258 3.63836 5.31817
1 9.41297 5.55157 6.89122
2 9.38454 3.63973 7.30216
1 7.47588 3.63889 7.62687
1 9.36078 3.63811 9.2371
2 7.47048 3.6387 9.47347
1 7.47449 5.46787 10.0804
2 7.48135 5.7201 11.9729
1 9.37266 5.5124 12.3108
1 7.48043 5.53664 13.8699
2 9.40204 5.56092 14.2724
1 9.39932 3.63826 14.6501
1 9.40401 5.56009 16.219
2 9.4017 3.63949 16.6011
1 7.48131 3.63958 16.9873
1 9.40326 3.63801 18.5507
2 7.48077 3.63866 18.9341
1 7.4802 5.55992 19.3173
1 7.48391 3.63489 20.8843
2 7.48118 5.55833 21.2648
1 9.40326 5.56212 21.6497
1 7.47966 5.55429 23.2135
2 9.40075 5.5536 23.5975
1 9.4482 3.60575 23.9707
1 9.40015 5.54927 25.5444
2 9.39845 3.63304 25.9303
1 7.45235 3.58518 26.2655
1 9.39178 3.64235 27.8884
2 7.52131 7.38122 0.301608
1 7.35582 9.4049 0.57523
1 7.47257 7.51341 2.21998
2 7.46797 9.36872 2.62729
1 9.40488 9.5367 2.99126
1 7.48484 9.40285 4.5565
2 9.36486 9.33168 4.96233
1 9.39513 7.47346 5.3331
1 9.41336 9.40202 6.88779
2 9.40059 7.47836 7.28211
1 7.47717 7.47671 7.67303
1 9.40878 7.4758 9.22674
2 7.52066 7.46147 9.6183
1 7.47372 9.39515 9.98766
1 7.47861 7.50776 11.5465
2 7.4834 9.37616 11.9199
1 9.40123 9.40777 12.3275
1 7.48427 9.5358 13.8973
2 9.44454 9.36031 14.273
1 9.40371 7.47429 14.6546
1 9.39028 9.40832 16.216
2 9.4014 7.48401 16.6017
1 7.48961 7.47687 16.9887
1 9.3982 7.48352 18.5519
2 7.47741 7.48277 18.9343
1 7.47883 9.3977 19.3273
1 7.48577 7.47771 20.8828
2 7.52897 9.36084 21.2858
1 9.43256 9.44569 21.6382
1 7.48284 9.40526 23.2836
2 9.43367 9.39988 23.5779
1 9.39585 7.48443 23.9838
1 9.28587 9.4048 25.5523
2 9.44759 7.43991 25.9268
1 7.48011 7.61352 26.3066
1 9.40179 7.48146 27.8704
2 7.55138 11.3582 0.279556
1 7.35327 13.2518 0.662436
1 7.58606 11.322 2.22897
2 7.46865 13.2894 2.66231
1 9.40532 13.1106 2.98873
1 7.48414 13.2466 4.6321
2 9.40066 13.3192 4.9379
1 9.53157 11.3256 5.24223
1 9.27966 13.2397 6.90202
2 9.41216 11.2775 7.29157
1 7.48255 11.4519 7.65938
1 9.39906 11.3317 9.22386
2 7.47928 11.2927 9.65606
1 7.47608 13.247 9.921
1 7.48439 11.3191 11.6289
2 7.52755 13.2336 11.8961
1 9.40575 13.2378 12.328
1 7.47456 13.1158 13.8991
2 9.44419 13.2893 14.2717
1 9.26563 11.3254 14.6461
1 9.39037 13.2392 16.2159
2 9.457 11.3228 16.6153
1 7.57993 11.3364 16.9513
1 9.41031 11.3234 18.5603
2 7.51658 11.2717 18.8666
1 7.33876 13.2413 19.3009
1 7.36658 11.3193 20.8807
2 7.56762 13.2467 21.2531
1 9.44297 13.209 21.6464
1 7.48016 13.3735 23.2159
2 9.44509 13.2021 23.601
1 9.40265 11.3153 23.986
1 9.3988 13.2521 25.5397
2 9.44459 11.3682 25.9467
1 7.47452 11.1958 26.3131
1 9.41956 11.3172 27.9467
2 7.52672 15.2145 0.263487
1 7.49185 17.0967 0.672286
1 7.46887 15.1648 2.22525
2 7.43486 17.0494 2.61315
1 9.40399 17.221 2.99059
1 7.48441 17.0894 4.55392
2 9.36166 17.0177 4.95911
1 9.39085 15.1647 5.34238
1 9.4165 17.0982 6.8885
2 9.45119 15.2118 7.2805
1 7.48078 15.0377 7.64316
1 9.3994 15.1579 9.21603
2 7.51395 15.2026 9.60445
1 7.48056 17.0896 10.007
1 7.35043 15.1642 11.5647
2 7.48096 17.0885 11.945
1 9.40485 17.2219 12.3145
1 7.48035 17.0898 13.8788
2 9.39525 17.0577 14.2962
1 9.40556 15.1681 14.6596
1 9.40069 17.089 16.2231
2 9.3982 15.1633 16.6052
1 7.47524 15.1539 16.9926
1 9.40884 15.1668 18.5529
2 7.52566 15.2105 18.9526
1 7.47878 17.0976 19.3198
1 7.48386 15.1626 20.9512
2 7.52825 17.0813 21.2392
1 9.40892 17.084 21.6589
1 7.47789 16.9616 23.2147
2 9.40331 17.0917 23.5982
1 9.26844 15.1612 23.9669
1 9.4026 17.089 25.5357
2 9.43727 15.168 25.9489
1 7.48513 15.1586 26.2439
1 9.4093 15.1703 27.8773
2 7.44356 19.0086 0.263783
1 7.47623 20.9247 0.681784
1 7.59795 19.0068 2.239
2 7.482 20.9304 2.63485
1 9.41102 20.7958 2.98902
1 7.49357 20.9367 4.62287
2 9.40034 21.0132 4.93529
1 9.52638 19.0126 5.24309
1 9.27585 20.924 6.90093
2 9.4146 18.966 7.31257
1 7.4803 19.1459 7.6507
1 9.3829 19.0146 9.29323
2 7.44235 18.9769 9.6125
1 7.48515 20.9272 9.92284
1 7.61199 19.0179 11.5725
2 7.43754 20.9709 11.9188
1 9.39592 20.8024 12.3154
1 7.45706 20.9708 13.8898
2 9.38884 20.9647 14.2942
1 9.39885 19.0111 14.5794
1 9.40637 20.9244 16.2216
2 9.40356 19.0086 16.5801
1 7.4771 19.0135 16.9808
1 9.40806 19.0098 18.5445
2 7.51352 19.013 18.9091
1 7.47473 20.9257 19.3239
1 7.35299 19.0139 20.8895
2 7.52434 20.9731 21.2668
1 9.41057 20.9293 21.6538
1 7.4702 20.9313 23.2089
2 9.35811 20.9723 23.5951
1 9.5358 19.0153 23.9742
1 9.40688 20.9241 25.5372
2 9.37096 19.0095 25.9724
1 7.48142 19.0143 26.3129
1 9.40335 19.0095 27.9567
2 7.4731 22.8061 0.256899
1 7.60451 24.78 0.657747
1 7.36782 22.8586 2.23466
2 7.49175 24.8117 2.66217
1 9.40926 24.7807 2.91996
1 7.48331 24.7706 4.63294
2 9.43465 24.7737 4.90177
1 9.38671 22.8682 5.34495
1 9.27187 24.7756 6.90635
2 9.51035 22.8528 7.2731
1 7.48189 22.8501 7.61479
1 9.3853 22.857 9.20756
2 7.48405 22.854 9.67524
1 7.48287 24.7786 9.91673
1 7.47444 22.8604 11.5732
2 7.48396 24.7732 11.9374
1 9.3992 24.7766 12.3216
1 7.45346 24.7274 13.9724
2 9.42844 24.7734 14.2496
1 9.39298 22.861 14.6643
1 9.27533 24.7768 16.2314
2 9.44612 22.8124 16.6048
1 7.4741 22.9801 16.9611
1 9.39635 22.8584 18.5445
2 7.48523 22.8209 18.9569
1 7.47621 24.775 19.2434
1 7.48364 22.8635 20.8857
2 7.4638 24.7768 21.2476
1 9.40103 24.7735 21.6497
1 7.51614 24.7813 23.2059
2 9.40827 24.7808 23.6143
1 9.39674 22.8628 23.9806
1 9.44642 24.8117 25.6305
2 9.40673 22.8246 25.9047
1 7.48534 22.862 26.3101
1 9.40562 22.9796 27.8831
2 11.3683 -0.167344 0.416507
1 11.3272 1.71438 0.650448
1 11.3131 -0.211592 2.25862
2 11.3154 1.68861 2.59375
1 13.2357 1.72243 3.00158
1 11.3212 1.84206 4.57471
2 13.2898 1.66898 4.94732
1 13.2487 -0.208522 5.33237
1 13.2393 1.72932 6.90311
2 13.2462 -0.20416 7.2781
1 11.3302 -0.203413 7.66299
1 13.2469 -0.200725 9.22501
2 11.3243 -0.198507 9.61051
1 11.37 1.74825 9.97983
1 11.3211 -0.201292 11.5557
2 11.3157 1.71591 11.9411
1 13.2446 1.71996 12.3194
1 11.321 1.71355 13.8851
2 13.2466 1.71729 14.2687
1 13.2437 -0.199013 14.6553
1 13.2458 1.71647 16.2185
2 13.2489 -0.205196 16.6036
1 11.3313 -0.203537 16.9868
1 13.2459 -0.205166 18.5515
2 11.324 -0.209907 18.9359
1 11.3231 1.71573 19.2821
1 11.3238 -0.194967 20.8963
2 11.3242 1.71625 21.1274
1 13.1508 1.71717 21.7399
2 13.4099 1.71721 23.63
1 13.1747 -0.172563 23.9882
1 13.1756 1.6838 25.5366
2 13.4115 -0.206796 25.8909
1 13.1537 -0.199209 27.7809
2 11.3239 3.63902 0.3008
1 11.3233 5.55854 0.662486
1 11.3198 3.63651 2.30177
2 11.3183 5.58741 2.59404
1 13.2423 5.55428 3.00405
1 11.3224 5.43273 4.57275
2 13.2895 5.60022 4.94701
1 13.1191 3.63703 5.2908
1 13.2396 5.54624 6.90448
2 13.2853 3.63822 7.15914
1 11.4106 3.63791 7.6808
2 11.1625 3.63826 9.61935
1 11.3714 5.5276 9.98052
1 11.3434 3.63889 11.5336
2 11.316 5.56214 11.9404
1 13.2478 5.56316 12.3244
1 11.3165 5.56018 13.8846
2 13.2038 5.51348 14.2666
1 13.2421 3.63055 14.6557
1 13.2516 5.55038 16.2116
2 13.2475 3.63471 16.6042
1 11.3249 3.6402 16.9863
1 13.2496 3.64158 18.5526
2 11.3252 3.63964 18.935
1 11.3215 5.55125 19.317
1 11.3269 3.62871 20.8978
2 11.3308 5.55362 21.2659
1 13.2721 5.60644 21.6402
1 11.3254 5.55502 23.2105
2 13.2438 5.55183 23.5996
1 13.2041 3.60638 23.9698
1 13.2472 5.55646 25.5412
2 13.2469 3.63442 25.9286
1 11.3217 3.63111 26.3131
1 13.2456 3.63731 27.876
2 11.3234 7.48462 0.278423
1 11.3187 9.40963 0.673503
1 11.3257 7.47242 2.22529
2 11.3648 9.33041 2.60001
1 13.2499 9.41458 3.00884
1 11.3226 9.54073 4.5734
2 13.2447 9.30074 4.9395
1 13.2479 7.46712 5.33497
1 13.2432 9.41514 6.87612
2 13.2425 7.48459 7.27922
1 11.324 7.48357 7.66151
1 13.2465 7.47755 9.22426
2 11.3268 7.47532 9.60987
1 11.3234 9.40354 9.99093
1 11.3187 7.47822 11.5549
2 11.3243 9.40305 11.9353
1 13.2526 9.39603 12.3315
1 11.3189 9.40249 13.8832
2 13.1732 9.44111 14.2683
1 13.3772 7.48541 14.6474
1 13.3753 9.40179 16.3169
2 13.1685 7.40684 16.6
1 11.3163 7.49263 17.0017
1 13.2503 7.6149 18.5705
2 11.2779 7.44527 18.9391
1 11.4451 9.50394 19.3987
1 11.3345 7.45235 20.8669
2 11.3014 9.23797 21.3164
1 13.2448 9.40343 21.5456
1 11.3342 9.42804 23.1931
2 13.2468 9.40194 23.5846
1 13.2481 7.48225 23.9728
1 13.247 9.40267 25.5406
2 13.2486 7.48145 25.9252
1 11.3314 7.47778 26.3115
1 13.2454 7.48271 27.8763
2 11.361 11.3222 0.272988
1 11.3172 13.2376 0.670581
1 11.1959 11.324 2.3225
2 11.3665 13.3147 2.59657
1 13.2514 13.234 3.00886
1 11.3276 13.1097 4.56917
2 13.2462 13.3445 4.93745
1 13.2534 11.3233 5.28852
1 13.2456 13.2281 6.87321
2 13.2464 11.3235 7.34135
1 11.325 11.3206 7.58216
1 13.2455 11.323 9.23823
2 11.3214 11.3239 9.59081
1 11.3214 13.2374 9.99271
1 11.3263 11.3235 11.5539
2 11.3268 13.2441 11.9387
1 13.2486 13.2513 12.3292
1 11.3257 13.2451 13.8863
2 13.2073 13.2029 14.2688
1 13.2497 11.3169 14.6616
1 13.2479 13.2622 16.2117
2 13.2158 11.402 16.5877
1 11.3367 11.3184 16.9582
1 13.2437 11.1883 18.5771
2 11.2845 11.3704 18.7997
1 11.3241 13.1592 19.4068
2 11.3282 13.409 21.2976
1 13.2148 13.1989 21.6383
1 11.3308 13.2174 23.1955
2 13.2483 13.2474 23.5982
1 13.2444 11.3215 23.9724
1 13.245 13.2452 25.544
2 13.2493 11.3236 25.9235
1 11.3303 11.3292 26.3102
1 13.2517 11.3241 27.874
2 11.3253 15.1674 0.280244
1 11.3175 17.0982 0.670586
1 11.3332 15.1679 2.22516
2 11.3713 17.019 2.60129
1 13.2784 17.1385 2.99505
1 11.3251 17.222 4.57059
2 13.2892 17.0488 4.96469
1 13.2478 15.1808 5.32709
1 13.2373 17.0888 6.96289
2 13.2466 15.1299 7.25861
1 11.3349 15.1758 7.66684
1 13.246 15.3024 9.23812
2 11.2812 15.1206 9.60924
1 11.4491 17.0911 9.98249
1 11.3336 15.1631 11.551
2 11.3396 17.0417 11.9635
1 13.2616 17.0852 12.2692
1 11.303 17.0951 13.884
2 13.1416 17.0905 14.2597
1 13.3752 15.1699 14.6399
1 13.2604 17.0898 16.2053
2 13.2158 15.1712 16.6254
1 11.3188 15.1627 16.9913
1 13.2431 15.1657 18.5537
2 11.3239 15.1495 18.9364
1 11.3245 17.0895 19.3125
1 11.3239 15.1959 20.8711
2 11.3262 17.0645 21.2431
1 13.2471 17.0938 21.6557
1 11.3322 17.2216 23.2239
2 13.2977 17.0458 23.5959
1 13.2516 15.1612 23.9783
1 13.2375 17.0861 25.5406
2 13.2459 15.1653 25.9285
1 11.3303 15.1666 26.3146
1 13.2486 15.171 27.878
2 11.3537 19.0108 0.24878
1 11.3196 20.9175 0.673463
1 11.201 19.0098 2.32114
2 11.3719 21.007 2.59935
1 13.2747 20.8851 2.99407
1 11.3301 20.8021 4.5679
2 13.2879 20.9774 4.96732
1 13.1349 19.0107 5.30714
1 13.2388 20.9323 6.96187
2 13.2881 19.0105 7.23373
1 11.3393 19.0067 7.59715
1 13.2504 19.0118 9.27032
2 11.2522 19.0127 9.56532
1 11.4512 20.9305 9.98443
1 11.2093 19.0106 11.5555
2 11.3364 20.979 11.9638
1 13.2564 20.9333 12.2692
1 11.3008 20.9259 13.8845
2 13.1412 20.9317 14.2591
1 13.3816 19.0114 14.6395
1 13.2594 20.9322 16.2035
2 13.2155 19.0123 16.6247
1 11.3197 19.0109 16.9901
1 13.2385 19.0068 18.5526
2 11.3208 19.0106 18.9569
1 11.3221 20.932 19.3133
1 11.3246 19.0102 20.9558
2 11.3237 20.9632 21.2401
1 13.2409 20.9277 21.6563
1 11.3209 20.8052 23.2208
2 13.2587 20.9773 23.5744
1 13.1258 19.0129 23.9738
1 13.3548 20.9333 25.5526
2 13.2332 18.9661 25.9511
1 11.3188 19.0051 26.2389
1 13.2572 19.0174 27.8851
2 11.3621 22.8071 0.280678
1 11.1966 24.7865 0.635557
1 11.324 22.8703 2.22011
2 11.356 24.7741 2.63428
1 13.2383 24.7711 3.00315
1 11.3277 24.7724 4.5652
2 13.2471 24.7799 4.94942
1 13.25 22.8592 5.3231
1 13.2467 24.7805 6.89215
2 13.2472 22.8863 7.25411
1 11.3457 22.8472 7.66891
1 13.2432 22.7176 9.23675
2 11.276 22.8973 9.60962
1 11.3207 24.7819 9.99225
1 11.3323 22.8569 11.5503
2 11.3257 24.7746 11.9369
1 13.2436 24.7709 12.3295
1 11.322 24.7775 13.8832
2 13.2031 24.8175 14.2727
1 13.3621 22.8522 14.6452
1 13.255 24.7713 16.2142
2 13.2162 22.8517 16.6258
1 11.3257 22.8488 16.9892
1 13.2405 22.8565 18.5529
2 11.3201 22.8572 18.9348
1 11.3251 24.7776 19.3201
1 11.3236 22.8591 20.8787
2 11.3231 24.7765 21.2674
1 13.2467 24.7725 21.6493
1 11.3243 24.7826 23.2175
2 13.2487 24.7802 23.5952
1 13.2622 22.8584 23.9888
1 13.1994 24.813 25.5526
2 13.201 22.9065 25.9259
1 11.3156 22.8672 26.3168
1 13.2404 22.8369 27.8685
2 15.0717 -0.165776 0.265021
1 15.1674 1.71581 0.671909
1 15.2972 -0.201567 2.23676
2 15.1259 1.76319 2.61526
1 17.0921 1.59969 2.98985
1 15.1762 1.70695 4.55685
2 17.0909 1.74919 4.96899
1 17.0932 -0.211034 5.25025
1 17.0855 1.71851 6.8969
2 17.0882 -0.20515 7.25697
1 15.1682 -0.204762 7.66004
1 17.0873 -0.202933 9.22166
2 15.1686 -0.196893 9.60567
1 15.1208 1.74778 9.97959
1 15.1664 -0.188793 11.5504
2 15.1705 1.71713 11.9416
1 17.088 1.71926 12.3223
1 15.1671 1.71634 13.8869
2 17.0869 1.71831 14.2712
1 17.0913 -0.190584 14.6588
1 17.0908 1.71581 16.2213
2 17.0924 -0.203759 16.607
1 15.1681 -0.204814 16.987
1 17.0909 -0.201869 18.5479
2 15.1682 -0.203492 18.9334
1 15.1635 1.71609 19.318
1 15.1644 -0.202182 20.882
2 15.1512 1.705 21.2681
1 17.0897 1.71563 21.6436
1 15.1999 1.71556 23.2071
2 17.0889 1.7176 23.5934
1 17.0879 -0.205369 23.9796
1 17.0888 1.72006 25.5422
2 17.0955 -0.170977 25.9179
1 15.2065 -0.209151 26.322
1 17.093 -0.340922 27.9741
2 15.1693 3.63884 0.282251
1 15.1673 5.55902 0.666588
1 15.1644 3.64488 2.22919
2 15.1674 5.55857 2.61443
1 17.0893 5.56101 2.99837
1 15.174 5.56233 4.56294
2 17.0921 5.55845 4.94463
1 17.086 3.64301 5.33701
1 17.0832 5.55112 6.89492
2 17.0732 3.63835 7.28297
1 15.0816 3.63807 7.75338
1 17.123 3.6389 9.21893
2 15.3316 3.63605 9.64015
1 15.1222 5.53014 9.97762
1 15.1448 3.63311 11.5351
2 15.1703 5.52839 11.9173
1 17.0857 5.56676 12.3268
1 15.1669 5.6745 13.8941
2 17.1291 5.51529 14.2718
1 17.0911 3.63141 14.6559
1 17.0824 5.56012 16.2166
2 17.0859 3.63676 16.6026
1 15.1674 3.64172 16.9919
1 17.0842 3.64162 18.5503
2 15.1689 3.65639 18.9368
1 15.1806 5.65238 19.4285
1 15.1617 3.58301 20.8731
2 15.1308 5.34344 21.3064
1 17.0362 5.73183 21.6206
1 15.1685 5.59095 23.1888
2 17.0885 5.52883 23.6182
1 17.0878 3.63636 23.9817
1 17.0894 5.56126 25.5459
2 17.081 3.6369 25.9314
1 15.1643 3.63457 26.3094
1 17.0885 3.6392 27.8781
2 15.1679 7.47882 0.280708
1 15.1669 9.40334 0.663899
1 15.1651 7.47604 2.22903
2 15.1668 9.37265 2.58904
1 17.0875 9.40836 2.99933
1 15.1647 9.53309 4.57107
2 17.0993 9.35677 4.91952
1 17.0984 7.47734 5.33689
1 17.1994 9.40448 6.89637
2 17.0422 7.43849 7.2783
1 15.1588 7.4781 7.66453
1 17.0834 7.4834 9.22066
2 15.1656 7.47836 9.63097
1 15.1656 9.40127 9.99052
1 15.1694 7.48046 11.6322
2 15.1665 9.43417 11.9284
1 17.0776 9.39581 12.3321
1 15.1651 9.27669 13.9841
2 17.1632 9.44035 14.2583
1 16.9564 7.48223 14.65
1 16.9705 9.39997 16.2264
2 17.1654 7.44248 16.6392
1 15.1665 7.6104 16.8687
1 17.0756 7.4877 18.6395
2 15.1757 7.39043 18.7445
1 15.0446 9.2947 19.3311
2 15.1574 9.61738 21.3162
1 17.0379 9.23178 21.6215
1 15.1655 9.36683 23.1873
2 17.0899 9.43371 23.621
1 17.0855 7.48126 23.9026
1 17.0878 9.4017 25.5467
2 17.0863 7.48182 25.9071
1 15.1682 7.48105 26.3114
1 17.0884 7.48135 27.8723
2 15.1676 11.3244 0.303515
1 15.1672 13.2449 0.661926
1 15.1682 11.3237 2.30418
2 15.1692 13.2673 2.59163
1 17.0871 13.2399 3.00403
1 15.1698 13.114 4.57671
2 17.1352 13.2883 4.94557
1 16.961 11.3221 5.32293
1 17.0796 13.2498 6.88861
2 17.0788 11.369 7.30137
1 15.1646 11.3284 7.58629
1 17.086 11.3203 9.22396
2 15.1679 11.3197 9.58618
1 15.1716 13.2379 9.98793
1 15.1675 11.3224 11.5481
2 15.1653 13.2126 11.9194
1 17.0863 13.2514 12.3279
1 15.1671 13.3801 13.8977
2 17.1293 13.2026 14.2704
1 17.0868 11.32 14.6622
1 17.0856 13.2541 16.2144
2 17.1296 11.3672 16.6033
1 15.1634 11.1979 16.9943
1 17.0874 11.3151 18.5443
2 15.2101 11.3973 18.9517
1 15.171 13.2624 19.3173
1 15.1537 11.3688 20.864
2 15.1604 13.2564 21.2684
1 17.0879 13.2462 21.6489
1 15.1642 13.2477 23.2099
2 17.0894 13.2354 23.5962
1 17.0869 11.3271 23.9817
1 17.0893 13.246 25.5479
2 17.0866 11.3261 25.9307
1 15.1678 11.3238 26.3143
1 17.0871 11.3244 27.8768
2 15.1681 15.1823 0.283624
1 15.1663 17.1642 0.757419
1 15.1644 15.1386 2.22298
2 15.1695 16.9292 2.64855
1 17.0595 17.1362 2.98705
1 15.1729 17.1083 4.54536
2 17.0914 17.0887 4.94721
1 17.0897 15.1748 5.32893
1 17.0883 17.0904 6.89333
2 17.0871 15.1704 7.27759
1 15.1632 15.1731 7.66879
1 17.0934 15.1642 9.22448
2 15.2101 15.1213 9.62692