1697
Atoms. Timestep: 1041
2 26.893 26.8913 0.407765
1 -0.394529 1.56187 0.699803
1 -0.40194 -0.24644 2.35377
2 26.8921 1.62491 2.63606
1 1.55084 1.51851 3.05946
1 -0.31848 1.35558 4.63597
2 1.59081 1.83594 4.91872
1 1.54899 1.40519 6.76569
2 1.58315 -0.338891 7.5169
1 -0.37195 26.8887 7.56736
1 1.54074 26.8894 9.34459
2 -0.359969 26.8933 9.59516
1 26.7397 1.55446 9.98782
1 26.8729 26.8905 11.5669
2 -0.364587 1.4922 11.9791
1 1.55366 1.55563 12.33
1 26.8762 1.55571 13.8944
2 1.50041 1.55456 14.2823
1 1.55426 -0.395672 14.6478
1 1.55257 1.55259 16.2174
2 1.5488 26.8844 16.5953
1 -0.39751 -0.393178 16.9717
1 1.55718 -0.383971 18.544
2 -0.394785 26.8842 18.9242
1 26.8893 1.54266 19.109
1 -0.392642 26.7892 20.85
1 1.72903 1.62554 21.5316
1 -0.386803 1.54238 23.3824
2 1.52283 1.48631 23.3495
1 1.5514 -0.269154 24.0719
2 1.55278 26.6627 25.9427
1 -0.353103 -0.347693 26.2614
1 1.54768 -0.381497 27.824
2 26.89 3.49229 28.2012
1 -0.390947 5.43748 0.69795
1 -0.391291 3.51146 2.28147
2 26.8848 5.45705 2.64962
1 1.55241 5.45105 3.03025
1 -0.385935 5.45306 4.59701
2 1.55 5.47835 4.98502
1 1.55577 3.59239 5.37797
1 1.54641 5.46309 6.95166
2 1.5555 3.4858 7.30574
1 -0.397765 3.49237 7.68924
1 1.44355 3.48006 9.22031
2 -0.405325 3.52397 9.65532
1 -0.405844 5.37607 9.84696
1 26.8825 3.38107 11.5755
1 1.61254 5.45488 12.4508
2 1.77727 5.44747 14.3525
1 1.49071 3.55069 14.6331
1 1.52763 5.44989 16.3016
2 1.5444 3.46493 16.5647
1 -0.396231 3.50815 16.9738
1 1.56744 3.64431 18.5521
2 26.8357 3.44838 18.9325
1 -0.254528 5.46495 19.2806
1 -0.401078 3.63289 20.8419
2 -0.390043 5.51253 21.2986
1 1.58552 5.38943 21.2525
1 -0.365202 5.4502 23.1634
1 1.54282 3.18221 24.1314
1 1.55394 5.52032 25.6712
2 1.554 3.71711 25.916
1 -0.355516 3.45549 26.2402
1 1.54979 3.4815 27.812
2 -0.398452 7.34748 28.195
1 26.8882 9.23229 0.722008
1 -0.401848 7.39733 2.27786
2 -0.396281 9.35238 2.64933
1 1.53794 9.35459 3.02519
1 26.849 9.40465 4.61589
2 1.54499 9.35175 4.97634
1 1.54358 7.40457 5.35756
1 1.54965 9.33426 6.92692
2 1.54737 7.4005 7.30682
1 26.8917 7.42813 7.70476
1 1.52528 7.45697 9.26956
2 -0.337551 7.17166 9.60522
1 -0.398469 7.66623 11.3962
2 26.8352 9.34562 12.1525
1 1.42494 9.34864 12.3454
1 -0.389061 9.33194 13.9868
2 1.56444 9.33931 14.2662
1 1.50615 7.34572 14.63
1 1.56846 9.34522 16.2138
2 1.54539 7.43838 16.5708
1 26.8893 7.38672 16.9746
1 1.57685 7.2414 18.5577
2 26.9044 7.44745 18.931
1 26.8607 9.35236 19.3087
1 26.8409 7.44256 20.8828
2 -0.166458 9.34662 21.1883
1 1.62364 9.35354 21.6287
1 26.7488 9.35331 23.0566
2 1.49889 9.41053 23.5217
1 1.53364 7.55414 23.963
1 1.68295 9.39831 25.5347
2 1.49876 7.38026 25.8789
1 26.8809 7.3932 26.2494
1 1.55854 7.40931 27.8269
1 26.8874 13.3654 0.721276
1 26.8841 11.2973 2.45959
2 -0.388232 13.2411 2.64983
1 1.55058 13.243 3.02491
1 26.8538 13.1959 4.62173
2 1.54431 13.2466 4.98345
1 1.55308 11.2907 5.357
1 1.5477 13.1271 6.9113
2 1.5788 11.2361 7.30215
1 -0.290114 11.277 7.70578
1 1.49751 11.2375 9.27935
2 26.8765 11.5211 9.57659
1 -0.391768 13.3182 9.84233
1 26.8896 11.0102 11.37
1 1.76585 13.4432 12.3518
1 -0.385117 13.2532 14.0558
2 1.55916 13.2053 14.275
1 1.5623 11.2942 14.6369
1 1.55276 13.2553 16.212
2 1.55109 11.2944 16.5929
1 26.8878 11.2977 16.9702
1 1.54633 11.2888 18.542
2 -0.400135 11.3058 18.9154
1 -0.385949 13.2362 19.3024
1 26.8325 11.2453 20.8774
2 26.8753 13.1757 21.2525
1 1.54592 13.252 21.6051
1 26.8956 13.2341 23.1984
2 1.51043 13.2467 23.5381
1 1.5237 11.298 23.9765
1 1.71339 13.2026 25.5446
2 1.55994 11.301 25.8556
1 1.54904 11.2932 27.6974
2 26.8816 15.2614 28.1999
1 26.8358 17.1952 0.693964
1 26.8893 15.2027 2.27399
2 -0.33631 17.137 2.64839
1 1.56168 17.1458 3.03951
1 26.9003 17.1379 4.60568
2 1.54532 17.1407 5.05365
1 1.54024 15.1928 5.1768
1 1.55971 17.2699 7.0189
1 26.7987 15.2009 7.71511
1 1.55224 15.3072 9.68735
2 26.8226 15.1788 9.63718
1 -0.226539 17.164 9.95641
1 -0.38925 15.3665 11.5458
2 26.8714 17.2337 11.9438
1 1.6326 16.9042 12.2064
1 -0.374503 17.1424 13.8657
2 1.55049 17.1676 14.293
1 1.53745 15.193 14.5141
1 1.55583 17.1372 16.2158
2 1.5598 15.1973 16.5558
1 -0.367201 15.1932 16.9566
1 1.59654 15.2566 18.5473
2 -0.358057 15.206 18.9225
1 -0.3955 17.1452 19.1174
1 -0.397231 15.0701 20.8477
1 1.6904 17.1452 21.6402
1 26.8796 17.1484 23.37
2 1.49278 17.0891 23.5524
1 1.55031 15.1848 23.9507
1 1.53236 17.1634 25.5038
2 1.51059 15.2493 25.8891
1 26.8995 15.1916 26.2588
1 1.55841 15.1956 27.8284
2 -0.165783 19.1007 0.386269
1 26.8319 20.9961 0.700265
1 26.8631 19.0813 2.26447
2 26.8226 20.9861 2.65743
1 1.41662 21.0356 3.03834
1 -0.418632 21.0352 4.60672
2 1.47115 20.9831 4.97669
1 1.54171 19.0835 5.34507
1 1.56279 20.9422 6.91142
2 1.5574 19.1171 7.28988
1 -0.389381 19.0942 7.67851
1 1.56415 18.947 9.2695
2 26.8512 19.0922 9.61185
1 26.8891 20.9433 10.0233
1 -0.388249 19.0944 11.5687
2 -0.39983 21.0218 11.9379
1 1.4435 21.0428 12.3477
1 26.8742 21.0353 13.8979
2 1.5528 21.0441 14.2662
1 1.56026 19.0911 14.6334
1 1.56112 21.0389 16.2197
2 1.49433 19.0959 16.5854
1 26.8944 19.087 16.9797
1 1.60401 19.018 18.567
2 -0.311939 19.0676 18.9403
1 26.7668 21.0358 19.0885
1 26.889 19.1042 20.8227
1 1.68842 21.0265 21.6394
1 26.8798 21.0356 23.3617
2 1.49571 21.0954 23.5498
1 1.70525 19.0932 23.9184
1 1.53681 21.0272 25.5004
2 1.50044 19.0933 25.9078
1 26.7485 19.0936 26.3989
1 1.62515 19.0981 27.8207
2 -0.402917 22.9866 0.338562
1 -0.392007 24.9448 0.529122
1 -0.395634 22.8666 2.25483
1 1.67432 24.9957 3.08897
1 -0.333135 25.1245 4.84501
2 1.48734 24.6537 4.9339
1 1.72418 22.8752 5.15521
1 1.56067 25.2745 6.69585
1 26.8013 23.0097 7.54289
1 1.53363 23.0307 9.36247
1 26.8777 25.0465 10.0206
1 26.7788 22.9905 11.7727
2 -0.343416 24.9601 11.9433
1 1.54797 24.9317 12.3184
1 -0.388736 24.9479 13.8944
2 1.55298 24.9401 14.2726
1 1.55741 22.9879 14.6451
1 1.54754 24.939 16.2167
2 1.55375 22.989 16.5893
1 26.8839 22.9954 16.9669
1 1.54717 22.9994 18.5367
2 -0.340922 23.0093 18.916
1 -0.39556 24.9388 19.3012
1 26.8809 23.0865 20.8392
2 26.8843 24.9379 21.2658
1 1.54059 24.9494 21.6307
1 -0.391828 24.9516 23.197
2 1.49463 24.952 23.5822
1 1.55271 22.9871 23.93
1 1.55088 24.874 25.5027
2 1.5586 22.9688 25.8917
1 -0.398425 22.9927 26.2648
1 1.54725 22.9826 27.845
2 3.49785 26.8983 0.332146
1 3.49861 1.55342 0.707035
1 3.49659 -0.385773 2.28214
2 3.50142 1.54576 2.64963
1 5.44649 1.55629 3.04562
1 3.46197 1.49992 4.6118
2 5.38417 1.60464 4.98343
1 5.59928 -0.371137 5.33578
1 5.45093 1.56611 6.93386
2 5.41096 -0.330898 7.3129
1 3.49339 26.8983 7.69042
1 5.46717 26.7016 9.26526
2 3.45928 -0.397272 9.62796
1 3.51559 1.44419 10.0133
1 3.50723 -0.370209 11.5878
2 3.50476 1.55303 11.9513
1 5.44859 1.58409 12.1557
1 3.39481 1.60601 13.8882
1 5.44259 26.7694 14.6567
1 5.44444 1.6355 16.3252
2 5.39038 -0.369218 16.5649
1 3.49263 -0.373424 16.9782
1 5.42459 26.9115 18.5371
2 3.49626 -0.392017 18.9234
1 3.50741 1.68008 19.4197
1 3.50145 26.8171 20.8576
2 3.5769 1.31526 21.2784
1 5.42347 1.60882 21.6097
1 3.49248 1.57046 23.1675
2 5.45232 1.61628 23.5535
1 5.44603 -0.271947 23.951
1 5.43844 1.54365 25.5026
2 5.4424 26.8867 25.8788
1 3.46062 -0.347024 26.2509
1 5.43544 26.8806 27.8333
2 3.49639 3.49662 0.340056
1 3.49519 5.4439 0.705341
1 3.49581 3.49471 2.28968
2 3.50037 5.45213 2.6544
1 5.45173 5.45192 3.04027
1 3.49624 5.45208 4.60035
2 5.39913 5.40043 4.98366
1 5.44093 3.50015 5.35368
1 5.44847 5.44957 6.9277
2 5.45116 3.50512 7.32853
1 3.49096 3.48332 7.48996
1 5.44806 3.50294 9.21002
1 3.49224 5.56635 10.0151
1 3.50217 3.48722 11.761
2 3.52972 5.38501 11.9361
1 5.4636 5.42302 12.3234
1 3.58998 5.3864 13.9036
2 5.46239 5.66588 14.2131
1 5.45603 5.32161 16.0888
2 5.45877 3.50493 16.7232
1 3.51091 3.50132 16.8926
1 5.44217 3.49945 18.593
2 3.53987 3.44816 18.7439
1 3.35371 5.30635 19.3957
2 3.47862 5.68368 21.3178
1 5.39535 5.40051 21.5979
1 3.58378 5.42265 23.168
2 5.43243 5.45401 23.561
1 5.44559 3.51579 23.9426
1 5.61832 5.44697 25.5186
2 5.35477 3.43544 25.8832
1 3.44927 3.4463 26.2518
1 5.42052 3.49815 27.8381
2 3.50264 7.37091 0.350727
1 3.5547 9.40098 0.571211
1 3.50082 7.41265 2.26954
2 3.44139 9.34061 2.62395
1 5.32929 9.34495 3.04454
1 3.50095 9.35665 4.60504
2 5.43823 9.41001 4.9654
1 5.62418 7.40126 5.33591
1 5.49344 9.3707 6.93371
2 5.41834 7.40151 7.31846
1 3.49401 7.40949 7.68095
1 5.45125 7.3945 9.24869
2 3.49399 7.45503 9.63301
1 3.51728 9.35032 9.80051
1 3.49765 7.27747 11.5665
1 5.57477 9.34775 12.3428
1 3.49573 9.34438 14.0775
2 5.44875 9.36359 14.2678
1 5.44212 7.45999 14.658
1 5.44499 9.35189 16.2303
2 5.44938 7.38996 16.5833
1 3.50943 7.36417 16.9861
1 5.48707 7.43605 18.543
2 3.57107 7.46738 18.9186
1 3.50436 9.36561 19.2938
1 3.49884 7.46143 20.8437
2 3.52023 9.36735 21.2744
1 5.4501 9.34113 21.6134
1 3.51525 9.36134 23.3201
2 5.47477 9.34943 23.5437
1 5.44298 7.40642 23.9512
1 5.29996 9.37258 25.5478
2 5.46088 7.39149 25.89
1 3.49341 7.56934 26.244
1 5.44557 7.41563 27.8258
2 3.278 11.2997 0.443382
1 3.55847 13.1944 0.576186
1 3.52878 11.2949 2.27975
2 3.50236 13.2439 2.6366
1 5.46172 13.2355 3.01895
1 3.49842 13.2473 4.60393
2 5.41332 13.2428 4.95319
1 5.47743 11.3262 5.38763
1 5.64419 13.19 7.10197
2 5.17474 11.2172 7.23477
1 3.42967 11.3269 7.73321
1 5.60651 11.4538 9.11579
2 3.40649 11.2331 9.63036
1 3.66328 13.3857 10.1523
1 3.53302 11.2752 11.496
2 3.52407 12.9725 12.048
1 5.39974 13.4379 12.1525
1 3.54934 13.2875 13.8922
2 5.4561 13.2169 14.2998
1 5.43481 11.2962 14.6372
1 5.45221 13.2378 16.2295
2 5.45161 11.2858 16.5941
1 3.50687 11.3006 16.9779
1 5.49781 11.2396 18.5536
2 3.5103 11.2771 18.9217
1 3.51403 13.1728 19.3131
1 3.50856 11.2987 20.8853
2 3.45508 13.2541 21.2512
1 5.36763 13.2574 21.6887
1 3.43985 13.2496 23.2908
2 5.27165 13.2416 23.5391
1 5.53187 11.3589 23.887
1 5.42774 13.2002 25.568
2 5.57236 11.2304 25.7186
1 3.64562 11.3044 26.3208
2 3.51049 15.2213 0.349911
1 3.50764 17.1372 0.707974
1 3.50173 15.1685 2.27265
2 3.50014 17.091 2.67127
1 5.45173 17.1397 3.04052
1 3.4848 17.1186 4.6116
2 5.38654 17.0576 4.97933
1 5.48147 15.1531 5.38733
1 5.45608 17.1219 6.94886
2 5.49374 15.2742 7.29716
1 3.62896 15.1889 7.5933
1 5.38719 15.0523 9.3652
2 3.41996 15.1654 9.39201
1 3.33705 16.9782 10.1355
2 3.52518 17.3912 12.0398
1 5.39501 16.9735 12.2866
1 3.49574 17.1051 13.8805
2 5.45245 17.1783 14.3141
1 5.45576 15.1895 14.5112
1 5.45019 17.0112 16.2026
2 5.445 15.1371 16.5741
1 3.50125 15.2194 16.9807
1 5.40347 15.2494 18.5519
2 3.49821 14.956 18.8595
1 3.508 15.3148 20.7301
2 3.5622 17.1012 21.3807
1 5.45241 17.1375 21.6301
1 3.51776 17.2973 23.256
2 5.46846 17.0004 23.5586
1 5.52323 15.1073 23.9555
1 5.45133 17.1662 25.4812
2 5.4547 15.3257 25.8889
1 3.50936 15.019 26.2392
1 5.48149 15.174 27.7918
2 3.51645 19.0944 28.1837
1 3.50825 21.043 0.534189
1 3.5014 18.9712 2.24765
1 5.55907 21.046 2.9282
1 3.38636 21.1345 4.76504
1 5.58694 18.9319 5.38319
1 5.44176 20.9167 7.03127
2 5.44822 19.0451 7.32041
1 3.49756 19.0982 7.70783
1 5.33826 19.0807 9.23706
2 3.49436 19.1181 9.64272
1 3.48469 20.9576 9.85875
1 3.49312 19.0985 11.5265
1 5.57995 21.0502 12.3318
1 3.49863 21.0409 14.0786
2 5.42908 21.0354 14.2672
1 5.4339 19.0899 14.4525
1 5.44909 21.1666 16.2027
1 3.37855 19.0698 17.01
1 5.40609 19.0281 18.7467
2 3.51126 19.3188 18.8829
1 3.51177 21.1069 19.2949
1 3.49929 18.9656 20.8131
2 3.55295 21.0666 21.1979
1 5.4323 21.0356 21.6001
1 3.50548 20.8671 23.187
2 5.41216 21.1017 23.541
1 5.46668 19.0881 23.8786
1 5.44977 21.0209 25.4849
2 5.44366 19.0926 25.952
1 3.50947 19.0983 26.1291
1 5.45109 19.1042 27.8566
2 3.49604 22.9882 0.399908
1 3.49854 24.9564 0.689091
1 3.50493 23.1516 2.31942
2 3.56247 25.0073 2.62821
1 5.45895 24.9402 3.06522
1 3.47694 24.7702 4.64879
2 5.44979 24.9828 5.03984
1 5.35347 23.114 5.21446
1 5.44164 25.1046 6.96273
1 3.49873 23.0262 7.4171
1 5.45109 23.0643 9.35858
1 3.67437 25.0459 10.0256
1 3.48967 23.1071 11.696
2 3.42938 24.9905 11.948
1 5.28484 24.9153 12.2654
1 3.48438 24.9371 13.9005
2 5.42254 24.8845 14.1873
1 5.44552 22.9875 14.637
1 5.46592 24.9465 16.208
2 5.47045 23.0553 16.6065
1 3.49888 22.9872 16.9709
1 5.3345 22.999 18.5207
2 3.44163 23.0128 18.927
1 3.50911 24.9351 19.2842
1 3.50306 23.0039 20.8794
2 3.50311 24.9222 21.2478
1 5.4508 24.936 21.4341
1 3.36739 24.9554 23.1726
1 5.43964 22.9138 23.9671
1 5.44272 24.9454 25.697
2 5.44829 22.9946 25.8922
1 3.50578 22.9848 26.2755
1 5.45023 22.9855 27.8444
2 7.35077 -0.398019 0.371771
1 7.40527 1.53562 0.713195
1 7.39229 26.8858 2.39153
2 7.39656 1.58236 2.63971
1 9.3491 1.53636 3.03838
1 7.39945 1.40473 4.61142
2 9.40385 1.5981 4.98015
1 9.19829 26.8918 5.34486
1 9.34081 1.54751 6.9241
2 9.3801 26.8857 7.32524
1 7.40232 26.8859 7.57244
1 9.35788 -0.386476 9.25427
2 7.46272 -0.381524 9.58742
1 7.38323 1.45343 10.0118
1 7.39527 -0.281543 11.556
2 7.38966 1.60554 11.9581
1 9.33125 1.54635 12.3259
1 7.50137 1.59269 13.8921
2 9.39063 1.53218 14.291
1 9.41861 26.848 14.4451
1 9.3586 1.66925 16.1974
1 7.26036 -0.387735 16.9804
1 9.23589 26.8894 18.6726
2 7.36522 -0.343626 18.901
1 7.41266 1.55811 19.2873
1 7.39471 26.8966 20.8648
2 7.38933 1.5416 21.2379
1 9.34734 1.55359 21.6123
1 7.39745 1.56328 23.1828
2 9.33612 1.52098 23.5631
1 9.35336 -0.398094 23.9434
1 9.35746 1.42207 25.4921
2 9.30736 26.8381 25.9
1 7.3798 26.8861 26.2693
1 9.23925 26.833 27.8267
2 7.39293 3.45514 28.1952
1 7.41196 5.44117 0.604127
1 7.41151 3.49934 2.27036
2 7.40241 5.38198 2.6023
1 9.39462 5.51341 3.027
1 7.41176 5.60784 4.60432
2 9.34603 5.33304 4.96079
1 9.35167 3.48621 5.35076
1 9.35057 5.4686 6.89599
2 9.33522 3.50326 7.30813
1 7.40097 3.50537 7.49581
1 9.46051 3.50292 9.22738
1 7.39457 5.57752 10.015
1 7.38983 3.51331 11.7578
2 7.40476 5.44767 11.9373
1 9.33662 5.44621 12.3342
1 7.35933 5.39367 13.9056
2 9.34207 5.44787 14.276
1 9.34772 3.5125 14.6476
1 9.34135 5.46685 16.2268
2 9.34419 3.55597 16.6008
1 7.38165 3.49513 16.9662
1 9.34751 3.49779 18.5348
2 7.40737 3.48703 18.9283
1 7.39672 5.38576 19.3266
1 7.39431 3.47809 20.8842
2 7.35985 5.36639 21.3002
1 9.32621 5.57552 21.4083
1 7.26323 5.47492 23.2173
1 9.33307 3.40597 23.8252
1 9.26376 5.57923 25.6545
1 7.24648 3.64891 26.2849
1 9.34461 3.51443 28.0085
2 7.34447 7.45324 0.43951
1 7.39594 9.41656 0.47807
1 7.3965 7.24121 2.33817
1 9.52803 9.26772 3.05024
1 7.39803 9.22512 4.82364
2 9.30227 9.4839 4.94312
1 9.33765 7.41331 5.29874
1 9.30631 9.36789 6.90891
2 9.33211 7.40792 7.36561
1 7.39879 7.39816 7.57781
1 9.35497 7.3956 9.25988
2 7.39449 7.45443 9.58641
1 7.40063 9.35198 9.99346
1 7.39201 7.40289 11.5691
2 7.45523 9.33252 11.9454
1 9.35661 9.35781 12.327
1 7.40747 9.34284 13.8948
2 9.35047 9.3452 14.2763
1 9.34627 7.39686 14.6515
1 9.34432 9.34591 16.222
2 9.34663 7.40687 16.6159
1 7.39779 7.40661 16.9841
1 9.30381 7.45714 18.6413
2 7.37259 7.16381 18.8553
1 7.55998 7.52668 20.7628
2 7.35185 9.3337 21.4312
1 9.32323 9.20044 21.6165
1 7.39482 9.36286 23.2713
2 9.28561 9.44567 23.6049
1 9.33879 7.55746 23.8621
1 9.34742 9.29116 25.5236
2 9.41527 7.4489 25.8486
1 7.40756 7.20313 26.2459
1 9.21923 7.41645 27.8196
2 7.40112 11.2648 0.444318
1 7.40869 13.1799 0.532548
1 7.40378 11.4391 2.26033
2 7.4009 13.3078 2.69473
1 9.34362 13.2508 3.02271
1 7.39494 13.2538 4.74542
2 9.3907 13.2348 4.94178
1 9.33011 11.3279 5.37843
1 9.17598 13.1926 6.96164
2 9.63317 11.2483 7.2372
1 9.19704 11.3123 9.08041
2 7.45101 11.2269 9.81397
1 7.28246 13.2426 9.85106
1 7.37072 11.3143 11.6406
2 7.48519 13.2066 11.959
1 9.35368 13.243 12.3148
1 7.3699 13.2595 13.8706
2 9.34501 13.2423 14.2706
1 9.35354 11.294 14.6475
1 9.34419 13.2403 16.2198
2 9.35054 11.2905 16.5942
1 7.3999 11.28 16.9932
1 9.30709 11.2463 18.5526
2 7.40202 11.5275 18.8882
1 7.38743 13.3338 19.1235
1 7.40546 11.0166 20.6826
1 9.39345 13.2702 21.6101
2 9.54161 13.3064 23.4093
1 9.22532 11.5647 24.0415
2 9.36193 11.0495 25.7862
1 7.52149 11.5089 26.4158
2 7.40806 15.2163 0.359968
1 7.4283 17.161 0.692691
1 7.3955 15.1846 2.26999
2 7.40161 17.1153 2.63307
1 9.37322 17.1708 3.0176
1 7.40762 17.3087 4.60828
2 9.38264 17.1004 4.97993
1 9.34928 15.1677 5.29575
1 9.34147 17.1337 6.93214
2 9.40704 15.2339 7.13302
1 7.54291 15.0923 7.79201
2 7.25034 15.2135 9.64532
1 7.46061 17.0089 10.0234
1 7.3297 15.1704 11.5428
2 7.4536 17.2077 11.9376
1 9.35215 17.1581 12.3293
1 7.39298 17.1636 13.8786
2 9.34891 17.1472 14.2655
1 9.34492 15.1831 14.6324
1 9.34266 17.0787 16.1888
2 9.27876 15.1764 16.58
1 7.37277 15.1865 16.9743
1 9.35034 15.1998 18.5451
2 7.39334 15.2218 18.9286
1 7.38829 17.148 19.2874
1 7.39343 15.3059 20.8726
2 7.3643 17.1837 21.2198
1 9.25706 17.1196 21.5678
1 7.39909 17.3041 23.2214
2 9.42262 16.9829 23.386
1 9.28464 15.0938 24.1251
2 9.38615 15.2769 25.97
1 7.49617 15.0222 26.2172
1 9.38076 15.2446 27.8202
2 7.40788 19.0871 0.33716
1 7.42077 21.016 0.701475
1 7.38865 19.0995 2.37526
2 7.44638 21.0846 2.64646
1 9.39419 21.0374 3.00235
1 7.55866 20.8935 4.55725
2 9.42543 21.0963 4.99581
1 9.19101 19.0883 5.33369
1 9.32997 21.0427 6.93189
2 9.33435 19.0911 7.33285
1 7.3958 19.1111 7.31432
1 9.46099 19.0917 9.23996
1 7.41531 21.0213 10.0393
1 7.40081 19.0959 11.7653
2 7.46783 21.0131 11.9153
1 9.48365 21.0478 12.3624
1 7.33912 21.0511 13.8948
2 9.12646 21.0593 14.1493
1 9.41798 19.3143 14.7894
2 9.41109 18.8543 16.6406
1 7.56942 19.1614 16.9809
1 9.35527 19.1133 18.5315
2 7.37463 19.0323 18.9188
1 7.39236 20.9011 19.3125
1 7.40286 19.1089 20.9796
2 7.39979 21.0903 21.2247
1 9.34968 21.0227 21.4458
1 7.26693 20.8814 23.1619
1 9.2128 18.6924 24.1666
1 9.42157 21.0977 25.6987
2 9.12497 19.3411 25.8624
1 7.35589 19.0418 26.1599
1 9.47687 19.0342 27.6257
2 7.4092 22.9878 28.2008
1 7.40671 24.9435 0.708753
1 7.37952 22.9869 2.26946
2 7.39557 24.9006 2.63485
1 9.34919 24.9288 3.00286
1 7.41102 25.0973 4.61689
2 9.36052 24.8848 4.98125
1 9.34964 22.9906 5.35463
1 9.32855 24.941 6.92292
2 9.38043 22.9924 7.30624
1 7.51264 23.0036 7.54809
1 9.47678 22.9803 9.23171
1 7.26792 25.047 9.83583
1 7.4233 22.8933 11.7136
1 9.67089 24.9198 12.5453
1 7.32312 24.9203 14.0573
2 9.11962 24.9379 14.3112
1 9.4501 22.8155 14.7655
1 9.38773 24.9017 16.1457
2 9.33783 23.1638 16.6689
1 7.4462 22.9291 16.7537
1 9.45247 22.9572 18.5195
1 7.40101 25.0639 19.3088
1 7.39443 22.9995 21.051
2 7.38891 24.9401 21.2373
1 9.34039 24.9417 21.6096
1 7.51659 24.9421 23.1676
2 9.39548 25.0038 23.5657
1 9.34425 23.1138 23.9538
1 9.37611 24.9326 25.5268
2 9.33722 22.9964 25.872
1 7.40219 22.9868 26.2622
1 9.38611 22.9852 27.8587
1 11.2953 1.65076 0.717541
1 11.3205 26.8006 2.36996
2 11.2969 1.50576 2.63597
1 13.2474 1.52903 3.03702
1 11.3055 1.52567 4.59811
2 13.2019 1.61184 4.97295
1 13.4672 26.8077 5.32289
1 13.249 1.54409 6.90589
2 13.1756 -0.345732 7.31639
1 11.297 -0.40205 7.66912
1 13.2677 26.8811 9.24022
2 11.3051 -0.391046 9.62411
1 11.2959 1.55052 10.0124
1 11.2925 26.8635 11.5751
2 11.2049 1.49427 11.9524
1 13.0899 1.70309 12.3588
1 11.2876 1.52902 13.9204
2 13.2371 1.41862 14.2718
1 13.1661 26.8103 14.4737
1 13.2337 1.6904 16.1782
1 11.3275 26.8773 16.906
1 13.3878 26.8016 18.6966
1 11.2909 1.67414 19.3162
1 11.2967 26.8831 21.0347
2 11.2961 1.54093 21.2377
1 13.2382 1.54653 21.6176
1 11.2765 1.56744 23.1967
2 13.1814 1.57244 23.5623
1 13.3822 26.8927 23.7237
1 13.2567 1.66862 25.48
1 11.1934 26.851 26.1512
1 13.3236 26.8423 27.9822
2 11.2889 3.51967 28.1795
1 11.2939 5.39706 0.812925
1 11.2875 3.43233 2.27458
2 11.3003 5.2283 2.69113
1 13.2 5.50884 3.02334
1 11.2858 5.66293 4.58563
2 13.2976 5.39726 4.97535
1 13.2317 3.50843 5.35918
1 13.2439 5.44749 6.92518
2 13.2461 3.50219 7.33813
1 11.308 3.49978 7.67952
1 13.2644 3.49014 9.37835
2 11.3241 3.50137 9.61095
1 11.2953 5.45081 10.0032
1 11.4508 3.50942 11.581
2 11.2361 5.49652 11.9441
1 13.2375 5.27804 12.3293
1 11.3212 5.51257 13.8973
2 13.1763 5.30029 14.2449
1 13.3996 3.45936 14.5276
1 13.2511 5.58762 16.0878
2 13.2108 3.57769 16.599
1 11.3012 3.50946 16.9624
1 13.2459 3.51851 18.5278
2 11.292 3.55772 18.9091
1 11.291 5.46958 19.29
1 11.3012 3.49531 20.8663
2 11.3121 5.38533 21.2377
1 13.243 5.44783 21.6158
1 11.4134 5.45791 23.1531
2 13.3054 5.38936 23.5682
1 13.2408 3.49603 23.9379
1 13.2467 5.46222 25.5169
2 13.3101 3.56308 25.8873
1 11.4214 3.50025 26.2786
1 13.2492 3.50765 27.834
1 11.235 9.46966 0.782968
2 11.3566 9.55534 2.66861
1 13.2124 9.31651 3.03733
1 11.318 9.16799 4.60983
2 13.3157 9.16078 4.931
1 13.0864 7.3527 5.35851
1 13.2519 9.49482 6.78709
2 13.2211 7.41052 7.31207
1 11.2854 7.42044 7.5212
1 13.2297 7.41573 9.23408
2 11.3074 7.39887 9.59705
1 11.2782 9.35573 9.99909
1 11.3078 7.39699 11.5695
2 11.2454 9.29455 11.9441
1 13.2474 9.50526 12.3177
1 11.3443 9.28549 13.8969
2 13.2503 9.54643 14.245
1 13.2463 9.20159 16.0889
2 13.1823 7.39669 16.7623
1 11.283 7.39391 16.9743
1 13.247 7.39915 18.6108
2 11.3141 7.40739 18.9108
1 11.3013 9.3435 19.3014
1 11.1343 7.40112 20.8978
2 11.3533 9.39529 21.2523
1 13.2561 9.34475 21.4371
1 11.1442 9.38069 23.1629
1 13.2501 7.27856 23.9601
1 13.2188 9.35818 25.703
2 13.248 7.41289 25.8902
1 11.3157 7.40435 26.0786
1 13.3473 7.40665 27.8333
2 11.5421 11.3189 0.383893
1 11.2117 13.1608 0.690084
1 11.2679 11.357 2.27364
2 11.285 13.2759 2.64554
1 13.2229 13.2341 3.03779
1 11.3383 13.2013 4.60932
2 13.2549 13.4762 4.9266
1 13.2438 13.1078 6.79842
2 13.2945 11.2961 7.57694
1 11.3945 11.2909 7.67887
1 13.0874 11.3082 9.42768
2 11.1798 11.3097 9.60445
1 11.2299 13.2819 9.99616
1 11.4389 11.2991 11.5758
2 11.2469 13.2964 11.9543
1 13.2406 13.0959 12.2986
1 11.3019 13.2542 13.8914
2 13.2622 13.2935 14.2992
1 13.2465 11.3577 14.5737
1 13.245 13.1183 16.2096
2 13.2414 11.2116 16.5749
1 11.2989 11.2906 16.9724
1 13.2308 11.2745 18.5309
2 11.2807 11.296 18.9165
1 11.2829 13.2607 19.3071
1 11.281 11.2902 20.8655
2 11.2611 13.1884 21.2218
1 13.1149 13.3022 21.6473
1 11.3366 13.2553 23.1963
2 13.2537 13.2672 23.5591
1 13.2349 11.4042 23.9724
1 13.2264 13.26 25.5078
2 13.1631 11.2927 25.8752
1 11.0872 11.3643 26.4056
1 13.3089 11.2795 27.8107
2 11.299 14.948 28.1561
1 11.3011 15.3397 2.13901
2 11.295 17.167 2.82682
1 13.2242 17.156 3.01263
1 11.2934 17.1506 4.67011
2 13.2206 17.1638 4.95835
1 13.23 15.2629 5.38813
1 13.4022 17.1668 6.95404
2 13.1659 15.115 7.30245
1 11.1726 15.1728 7.81206
1 13.3188 15.1865 9.21876
2 11.5367 15.1982 9.68245
1 11.2315 17.1019 9.99527
1 11.2774 15.2022 11.5567
2 11.2956 17.1514 11.9533
1 13.2451 17.1368 12.3094
1 11.2896 17.1548 13.8989
2 13.2409 17.1526 14.2719
1 13.2532 15.202 14.4618
1 13.2425 17.2772 16.1932
1 11.1798 15.1944 16.9812
1 13.229 15.189 18.9295
2 11.3022 15.1984 18.8862
1 11.3198 17.148 19.3067
1 11.5622 15.2773 20.9252
2 11.0368 17.1927 21.1761
1 11.4135 17.1087 23.0544
2 13.2359 17.1569 23.7784
1 13.2663 15.2344 23.8324
1 13.1264 17.2418 25.6413
2 13.2253 15.1966 25.8643
1 11.239 15.2549 26.2537
1 13.1826 15.2516 27.8331
2 11.0848 19.0159 0.420725
1 11.4058 19.1254 2.12845
2 11.2434 20.952 2.84719
1 13.196 21.1836 2.84671
1 11.3382 21.0635 4.66636
2 13.2682 21.0065 4.99398
1 13.2626 19.0894 5.36745
1 13.257 21.0444 6.92115
2 13.1724 19.144 7.3031
1 11.2798 19.0909 7.67102
1 13.2045 19.0847 9.22996
2 11.3352 19.0721 9.63408
1 11.299 21.0439 9.92752
1 11.3048 19.1018 11.5756
2 11.313 21.0446 11.7691
1 13.111 21.0331 12.4525
2 13.3993 21.049 14.3304
1 13.195 19.1396 14.6394
1 13.2205 21.0492 16.2027
2 13.238 19.1526 16.6094
1 11.2697 19.1548 16.9588
1 13.228 19.087 18.5428
2 11.2979 19.0981 18.9176
1 11.283 21.0227 19.2974
1 11.3434 19.0607 20.8777
2 11.2983 21.0257 21.254
1 13.2443 21.0487 21.6152
1 11.4084 21.0336 23.1831
2 13.273 21.0434 23.5877
1 13.219 19.0893 23.8379
1 13.1297 20.9168 25.7615
2 13.5509 19.0773 25.5973
2 11.2164 23.1318 28.1185
1 11.4806 23.0076 2.09671
2 11.245 24.9817 2.78401
1 13.3772 24.8011 3.14999
1 11.2134 24.9212 4.62114
2 12.9619 24.9349 5.06628
1 13.304 23.0273 5.20783
1 13.469 24.9232 6.90319
2 13.2012 22.9336 7.2656
1 11.3125 23.0018 7.65515
1 13.2612 22.9941 9.23706
2 11.35 22.9917 9.62032
1 11.3062 24.9376 9.92092
1 11.3043 22.9884 11.5829
2 11.3613 24.9294 11.7587
1 13.1219 24.9435 12.4757
2 13.4772 24.9227 14.4021
1 13.1323 22.9784 14.6138
1 13.2033 24.7771 16.2641
2 13.2291 22.9256 16.5784
1 11.2559 22.9267 16.9645
1 13.2538 23.1634 18.5388
2 11.3141 22.9027 18.9295
1 11.4431 24.7935 19.3136
1 11.2931 22.963 20.8833
2 11.2501 24.932 21.2324
1 13.2536 24.9435 21.5331
1 11.2918 24.9335 23.1772
2 13.153 24.916 23.5462
1 13.2348 22.9474 23.9438
1 13.431 24.793 25.4773
2 13.1638 22.9206 25.8672
1 11.296 22.9652 26.2883
1 13.1294 22.8905 27.9915
2 15.1812 -0.33599 28.1606
1 15.1983 1.54537 0.71063
1 15.2066 26.8607 2.40829
2 15.1938 1.59161 2.63295
1 17.1429 1.55253 3.04033
1 15.1992 1.49293 4.60165
2 17.195 1.62117 4.97241
1 16.9692 26.7831 5.31297
1 17.1427 1.52924 6.89735
2 17.1487 -0.347239 7.30783
1 15.188 26.7643 7.55101
1 17.1189 -0.39435 9.23381
2 15.1987 -0.345504 9.64809
1 15.1901 1.5668 9.83224
1 15.189 26.7583 11.5503
1 17.1096 1.56461 12.3568
1 15.1886 1.67963 14.1017
2 17.1272 1.49807 14.2502
1 17.1728 -0.386599 14.6378
1 17.15 1.54613 16.2197
2 17.202 26.8887 16.5847
1 15.3223 26.8767 16.9941
1 17.1604 -0.395232 18.5453
2 15.2763 -0.333779 18.9494
1 15.2049 1.56646 19.2989
1 15.209 26.8708 20.9651
2 15.1345 1.53348 21.2211
1 17.1421 1.70256 21.61
1 15.2029 1.40491 23.2046
2 17.2118 1.52407 23.5864
1 17.04 26.8492 23.7263
1 17.139 1.67771 25.4809
1 15.2062 26.7219 26.2286
1 17.0474 26.8958 27.9768
2 15.195 3.50216 28.2065
1 15.1955 5.44273 0.712657
1 15.1842 3.5114 2.27896
2 15.1977 5.45337 2.65535
1 17.1575 5.45449 3.02856
1 15.1886 5.45389 4.59307
2 17.0764 5.46138 5.00368
1 17.155 3.50866 5.35782
1 17.1347 5.32883 6.91766
2 17.1423 3.44267 7.31232
1 15.1866 3.5013 7.69066
1 17.1447 3.48899 9.25533
2 15.2408 3.50849 9.6542
1 15.1965 5.4528 9.99006
1 15.064 3.65901 11.6559
2 15.2444 5.56047 11.9276
1 17.1296 5.45359 12.3257
1 15.1616 5.32993 13.9223
2 17.1644 5.47439 14.2901
1 17.0107 3.49375 14.6289
1 17.1436 5.30852 16.2073
2 17.1739 3.43333 16.6655
1 15.1881 3.51731 16.8586
1 17.1382 3.4973 18.6426
2 15.1599 3.50615 18.8574
1 15.2023 5.44814 19.2875
1 15.3433 3.50456 20.8675
2 15.1345 5.50067 21.2328
1 17.1448 5.29851 21.6021
1 15.2106 5.45047 23.177
2 17.1448 5.48231 23.5807
1 17.1465 3.501 23.8287
1 17.1485 5.44166 25.5125
2 17.1398 3.55418 25.8637
1 15.2125 3.49383 26.2631
1 17.16 3.56749 27.8366
2 15.2098 7.33563 0.347911
1 15.3564 9.33922 0.684966
1 15.1895 7.40454 2.28147
2 15.1644 9.34845 2.6691
1 17.1488 9.32984 2.93995
1 15.1735 9.40566 4.60777
2 17.1402 9.35256 4.96081
1 17.1339 7.40963 5.16064
1 17.1429 9.47177 6.89976
1 15.0719 7.41149 7.6867
1 17.1258 7.39325 9.43591
2 15.1906 7.34437 9.60509
1 15.1834 9.23292 10.0169
1 15.1991 7.42018 11.5857
2 15.258 9.34292 11.9316
1 17.1414 9.36503 12.3425
1 15.1687 9.33204 13.9081
2 17.0421 9.1321 14.2308
1 17.1359 7.33367 14.4966
1 17.3112 9.68519 16.0015
1 15.0674 7.4049 16.9793
1 17.1304 7.41096 18.7025
2 15.205 7.40466 18.9137
1 15.1968 9.34768 19.2877
1 15.2011 7.39414 20.867
2 15.1979 9.28755 21.2632
1 17.1526 9.3572 21.6264
1 15.3249 9.34761 23.1793
2 17.2035 9.35182 23.65
1 17.1408 7.39493 23.9309
1 17.1516 9.18986 25.5904
2 17.1368 7.32406 25.8663
1 15.2005 7.41074 26.2831
1 17.1862 7.52523 27.8525
2 15.1973 11.3665 28.202
1 15.1781 13.2691 0.705746
1 15.1801 11.2907 2.27938
2 15.1365 13.2441 2.64204
1 17.0124 13.2502 3.06102
1 15.1453 13.1876 4.60784
2 17.1395 13.2357 4.97513
1 17.1434 11.3015 5.34969
1 17.1516 13.2478 6.92947
2 17.1305 11.3501 7.31884
1 15.1817 11.2961 7.48464
1 17.2646 11.3008 9.23568
1 15.185 13.353 10.0221
1 15.0782 11.2941 11.8074
2 15.1959 13.2629 11.938
1 17.0472 13.2248 12.3663
1 15.2399 13.1968 13.9114
2 17.1591 13.4663 14.2382
1 17.161 13.1536 16.1836
2 17.08 11.3569 16.7519
1 15.1816 11.2953 16.9678
1 17.1617 11.4503 18.6095
2 15.1231 11.2859 18.9295
1 15.3454 13.2593 19.0941
1 15.202 11.182 20.8431
1 17.2986 13.3944 21.5153
1 15.1931 13.2667 23.3447
2 17.0935 13.1989 23.5489
1 17.1416 11.2884 23.7581
1 17.1348 13.3579 25.4731
1 15.0798 11.2905 26.2718
1 17.141 11.1756 28.0553
2 15.1717 15.217 28.2094
1 15.1295 17.1839 0.701346
1 15.193 15.2023 2.28464
2 15.1811 17.1387 2.69002
1 17.1211 17.1497 3.01911
1 15.1936 17.1458 4.70996
2 17.182 17.1381 4.94774
1 17.1377 15.196 5.357
1 17.0084 17.1633 6.94668
2 17.1282 15.1415 7.28597
1 15.1869 15.3422 7.64903
1 17.1418 15.1937 9.23338
2 15.2231 15.2324 9.63473
1 15.2534 17.1958 9.88534
1 15.1966 15.2062 11.5707
2 15.1915 17.1388 11.9267
1 17.1209 17.1567 12.3112
1 15.183 17.1496 13.8937
2 17.1337 17.1052 14.2577
1 17.1493 15.2471 14.6549
1 17.1682 17.1442 16.2374
2 17.1927 15.2235 16.5596
1 15.3297 15.1915 16.977
1 17.0863 15.0333 18.6637
2 15.097 15.2286 18.8557
1 15.17 17.1655 19.3047
1 15.1533 15.4138 20.8983
2 15.4327 17.3057 21.1931
1 17.215 16.9911 21.6212
1 15.0509 17.1611 23.0546
2 17.1053 17.1917 23.5621
1 17.1174 15.2015 23.8139
1 17.2944 17.121 25.4973
2 17.0562 15.1955 25.8643
1 15.1626 15.2022 26.2516
1 17.1109 15.2065 27.8423
2 15.492 19.0454 0.411935
1 15.0643 20.9748 0.695319
1 15.1608 19.0859 2.26527
2 15.2709 20.9857 2.66889
1 17.1532 21.0385 3.02601
1 15.1745 21.0543 4.5779
2 17.131 21.0618 4.97469
1 17.1474 19.0922 5.31957
1 17.157 21.0291 6.93241
2 17.2335 19.1364 7.18111
1 15.3452 18.9332 7.79811
2 14.993 19.1255 9.69203
1 15.2301 21.0054 10.0039
1 15.1917 19.0806 11.5662
2 15.1648 20.9763 11.9572
1 17.1482 21.1593 12.0855
1 15.161 21.0629 13.8505
1 17.1483 18.972 14.6693
1 17.1468 21.0438 16.3994
2 17.1085 19.0997 16.5934
1 15.1767 19.1017 16.9636
1 17.0111 19.0843 18.5309
2 15.1323 19.0981 18.9183
1 15.2079 21.0375 19.3023
1 15.1551 19.1093 20.8773
2 15.1876 21.0412 21.2469
1 17.2806 21.0303 21.6913
1 15.1377 21.0431 23.2065
2 16.9281 21.0715 23.4892
1 17.178 19.2944 24.0886
2 17.0693 18.9371 25.9441
1 15.1737 19.1471 26.4049
1 17.2429 19.1143 27.807
2 15.2653 22.9742 28.1904
1 15.2057 24.9548 0.514472
1 15.0506 23.0076 2.27051
2 15.295 24.9547 2.39225
1 17.1289 24.9558 3.21724
2 17.266 24.885 5.0586
1 17.1452 23.04 5.35308
1 16.9404 24.9366 6.91386
2 17.1736 22.9219 7.33077
1 15.2039 23.1106 7.67179
1 17.1371 22.9916 9.33019
2 15.1674 22.9333 9.63259
1 15.1806 24.9362 9.86372