1679
Atoms. Timestep: 1359
1 -0.510615 1.58502 0.344635
1 -0.509872 -0.543578 2.13309
2 27.0368 1.44028 2.27877
1 1.40533 1.41414 2.6816
1 27.032 1.45929 4.24957
2 1.41482 1.42415 4.64888
1 1.40297 27.0493 5.02652
1 1.40753 1.42375 6.62219
2 1.41628 -0.534279 6.99454
1 -0.550054 27.0406 7.37453
1 1.27914 27.0321 8.93218
2 -0.549074 -0.560746 9.45231
1 27.0251 1.36808 9.84393
1 27.0318 27.0166 11.4426
2 -0.552633 1.336 11.8743
1 1.40929 1.44605 12.2954
1 27.0246 1.41819 13.8577
2 1.41813 1.442 14.2682
1 1.39993 27.1064 14.6589
1 1.40373 1.45537 16.2652
2 1.3844 -0.445084 16.6748
1 -0.58181 27.0671 17.1043
1 1.37577 -0.543599 18.6628
2 26.997 -0.557194 19.08
1 -0.590357 1.41572 19.439
1 -0.566835 -0.568103 21.0549
2 -0.646176 1.41084 21.4057
1 1.23428 1.42757 21.5188
1 -0.610678 1.42699 23.2923
1 1.44537 26.8289 24.216
1 1.36462 1.39249 26.2152
2 1.39786 -0.540094 26.06
1 -0.469978 27.0285 26.4543
2 26.9264 3.47989 -0.147729
1 -0.575518 5.40531 0.253517
1 -0.564222 3.44581 1.85564
2 27.0613 5.38848 2.22179
1 1.2975 5.38044 2.74966
1 -0.508343 5.3685 4.31727
2 1.43438 5.35631 4.69699
1 1.41953 3.39017 5.06885
1 1.38197 5.35957 6.66994
2 1.31903 3.38928 7.04687
1 27.0034 3.35497 7.44883
1 1.35175 3.41617 9.07116
2 -0.571792 3.38352 9.43272
1 27.0255 5.37447 9.53992
1 27.0215 3.20534 11.3636
1 1.59863 5.37821 12.3822
1 -0.570077 5.35699 14.2051
2 1.4302 5.27198 14.3115
1 1.41529 3.37708 14.689
1 1.43547 5.30602 16.3254
2 1.41988 3.38661 16.6912
1 27.0263 3.3905 17.0993
1 1.41584 3.39048 18.6636
2 -0.554043 3.39493 19.0757
1 27.0642 5.36787 19.4685
1 -0.566796 3.39939 21.0489
2 27.0489 5.37155 21.4393
1 1.43321 5.38911 21.8586
1 -0.386492 5.37119 23.3794
2 1.47953 5.36889 23.8989
1 1.37235 3.5362 24.3818
1 1.39117 5.38099 25.9677
2 1.28991 3.38642 26.3115
1 -0.630158 3.41108 26.7009
1 1.19321 3.46249 28.255
2 27.0297 7.35858 28.7169
1 -0.560793 9.31329 0.258098
1 -0.532646 7.35383 1.81995
2 -0.545937 9.30897 2.23918
1 1.4176 9.31985 2.66282
1 -0.543123 9.27651 4.22064
2 1.42662 9.20089 4.63816
1 1.43584 7.3105 5.07426
1 1.42171 9.23676 6.67414
2 1.41543 7.31531 7.06844
1 27.0336 7.35527 7.4522
1 1.40977 7.34103 9.04784
2 27.0217 7.35183 9.41855
1 -0.598979 9.35081 9.81655
1 -0.630848 7.54877 11.3547
2 27.1393 9.39075 11.7916
1 1.45026 9.32334 11.8905
1 26.9714 9.32515 13.6799
1 1.4293 7.13735 14.7902
1 1.39132 9.29845 16.606
2 1.41751 7.31165 16.7154
1 -0.558046 7.33057 17.0897
1 1.40833 7.32516 18.678
2 27.0332 7.33693 19.0749
1 -0.582626 9.30925 19.4748
1 -0.552198 7.34394 21.0538
2 -0.571299 9.31171 21.4436
1 1.40332 9.31355 21.5459
1 26.8469 9.3396 23.3778
1 1.42575 7.20242 24.4203
1 1.38333 9.31977 26.2417
2 1.40944 7.34252 26.3579
1 -0.558358 7.35897 26.7356
1 1.40409 7.36146 28.3264
2 -0.571735 11.2792 28.7274
1 27.0213 13.2465 0.231762
1 27.03 11.2694 1.82357
2 -0.488514 13.2392 2.21229
1 1.43577 13.2484 2.26875
1 26.9227 13.1987 4.18364
1 1.43815 11.0618 5.15234
1 1.43526 13.2013 6.97589
2 1.41122 11.2251 7.09036
1 -0.541367 11.2403 7.46183
1 1.41773 11.2363 9.07011
2 27.0288 11.2709 9.43036
1 27.0684 13.1835 9.83312
1 -0.575254 11.261 11.4403
2 -0.455348 13.1528 11.8691
1 1.45274 13.2365 12.2945
1 27.0871 13.2364 13.8986
2 1.44209 13.3424 14.2832
1 1.42259 11.4759 14.7864
1 1.44315 13.3214 16.3091
2 1.39475 11.2924 16.7087
1 -0.560801 11.2786 17.0837
1 1.37652 11.3092 18.6866
2 27.017 11.2814 19.0793
1 27.0255 13.2534 19.5041
1 -0.565854 11.2819 21.06
2 27.0175 13.2494 21.4871
1 1.38149 13.2663 21.9085
1 -0.563229 13.2679 23.4749
2 1.39056 13.3474 23.9065
1 1.37937 11.4724 24.4115
1 1.40552 13.3111 25.9249
2 1.31976 11.3024 26.3445
1 -0.578725 11.299 26.7306
1 1.35305 11.3103 28.351
2 -0.449298 15.212 -0.170891
1 27.0793 17.1831 0.219697
1 27.0471 15.2116 1.80992
2 27.045 17.1848 2.18872
1 1.4192 17.1437 2.55104
1 -0.402549 17.198 4.12927
2 1.4242 17.2585 4.65209
1 1.43543 15.3421 5.1163
1 1.4255 17.0688 6.61714
2 1.43533 15.1443 7.07609
1 -0.514515 15.1784 7.45252
1 1.43254 15.2151 9.06478
2 27.0646 15.2 9.43305
1 -0.543015 17.1915 9.52804
1 27.0718 15.0176 11.3603
1 1.50733 17.1987 12.3185
1 26.9895 17.187 14.2108
2 1.34252 17.186 14.2878
1 1.41203 15.2409 14.6889
1 1.43523 17.1711 16.2842
2 1.43573 15.2387 16.6874
1 -0.553212 15.2268 17.1071
1 1.42734 15.2238 18.6545
2 -0.547522 15.2161 19.0795
1 27.0318 17.1845 19.4943
1 27.0202 15.2149 21.0563
2 -0.576446 17.1855 21.472
1 1.3467 17.1908 21.8627
1 27.0039 17.1824 23.4653
2 1.31223 17.1996 23.9021
1 1.39903 15.2526 24.3175
1 1.41892 17.1945 25.89
2 1.44419 15.2403 26.3078
1 27.0983 15.2281 26.6843
1 1.44898 15.2026 28.2914
2 -0.531606 19.143 -0.176588
1 -0.567614 21.099 0.244693
1 -0.560801 19.1557 1.80999
2 26.9382 21.1169 2.23966
1 1.22747 21.1573 2.71742
1 -0.607511 21.1514 4.26418
2 1.40726 21.1675 4.64566
1 1.41876 19.1988 4.72749
1 1.37722 21.3353 6.57676
1 26.8448 19.2239 7.53265
1 1.41781 19.1566 9.41587
2 -0.561241 19.1758 9.45759
1 -0.555486 21.1836 9.84387
1 -0.622612 19.3511 11.3828
2 26.9716 21.222 11.8828
1 1.31141 21.0895 12.3143
1 -0.611128 21.1412 13.9008
2 1.30644 21.0962 14.2527
1 1.42347 19.1231 14.6339
1 1.49123 20.9185 16.1546
2 1.44522 19.0595 16.6815
1 -0.548926 19.1482 17.096
1 1.4205 19.1469 18.649
2 27.0345 19.1562 19.0752
1 -0.588551 21.1308 19.4955
1 27.0089 19.1558 21.0508
2 26.9953 21.1252 21.4726
1 1.34038 21.1183 21.8625
1 26.9907 21.0975 23.4595
2 1.31042 21.1051 23.8995
1 1.36782 19.1536 24.3245
1 1.41631 21.1066 25.8946
2 1.42298 19.1464 26.3064
1 27.0474 19.1317 26.7162
1 1.41798 19.1309 28.2837
2 26.9775 23.0145 28.7267
1 -0.462527 24.9001 0.320577
1 -0.559838 23.0509 1.86217
2 27.06 25.0488 2.25825
1 1.41818 25.0834 2.66371
1 -0.522799 25.0539 4.2445
2 1.42709 25.0914 4.63928
1 1.42305 23.1577 5.02665
1 1.42495 25.0971 6.62709
2 1.42096 23.2017 7.05852
1 -0.547008 23.1472 7.47222
1 1.42375 23.086 9.04403
2 27.0353 23.1074 9.44322
1 27.0367 25.0658 9.85945
1 -0.566919 23.1225 11.4385
2 27.0309 25.0669 11.8455
1 1.27447 25.0843 12.3531
1 -0.548232 25.0557 13.9439
2 1.39177 25.0619 14.2951
1 1.45166 23.0418 14.3441
1 1.33771 25.2605 16.2152
1 26.8237 23.0771 17.2047
1 1.38851 23.0809 19.0252
2 -0.590918 23.103 19.128
1 27.0005 25.0608 19.5067
1 -0.605152 23.0951 21.0884
2 -0.571256 25.06 21.494
1 1.39346 25.0032 21.8751
1 27.0367 25.0229 23.4789
2 1.40456 24.9342 23.8504
1 1.37595 23.045 24.2981
1 1.4157 25.0315 25.8649
2 1.48118 23.0829 26.2854
1 -0.427127 23.0701 26.7499
1 1.29775 23.0446 28.2464
2 3.59425 27.037 -0.0908732
1 3.27417 1.22328 0.336723
1 3.42706 27.034 1.8992
2 3.37491 1.33094 2.29877
1 5.37016 1.38676 2.63232
1 3.39424 1.39507 4.2572
2 5.36968 1.39848 4.60348
1 5.39201 -0.604272 4.99891
1 5.37683 1.23678 6.53359
2 5.38655 26.9518 7.00644
1 3.3971 27.0214 7.11314
1 5.55808 27.0456 8.93519
1 3.3725 1.66629 9.95064
1 3.38946 -0.29872 11.7161
2 3.38804 1.57415 11.9071
1 5.36553 1.47226 12.2966
1 3.39037 1.48062 13.8751
2 5.35862 1.44449 14.2747
1 5.31938 27.0716 14.6635
1 5.34931 1.43305 16.2577
2 5.33797 -0.523366 16.641
1 3.31872 27.0462 17.0392
1 5.15849 -0.56373 18.5712
2 3.28506 -0.564076 19.0441
1 3.36576 1.42851 19.1469
1 3.35647 26.8353 20.9742
1 5.59267 1.38443 21.6038
1 3.33585 1.37288 23.7157
1 5.25443 26.8374 24.387
1 5.28393 1.17296 26.1969
2 5.49414 -0.670798 26.293
1 3.03038 -0.572144 26.9865
1 5.3241 -0.603519 28.1826
1 3.39271 5.62323 -0.0186596
1 3.38235 3.19325 2.10889
1 5.55433 5.39725 2.72231
1 3.40481 5.36471 4.59349
2 5.38756 5.36777 4.6488
1 5.36677 3.38694 4.71845
1 5.39839 5.54292 6.58148
1 3.19089 3.41878 7.55229
1 5.36475 3.432 9.3723
2 3.37386 3.51792 9.47826
1 3.39624 5.41202 9.87121
1 3.38068 3.48682 11.5027
2 3.47236 5.40199 11.8773
1 5.36804 5.36461 12.2983
1 3.44136 5.35514 13.9063
2 5.36381 5.35761 14.2978
1 5.36813 3.39343 14.7032
1 5.3509 5.36101 16.2686
2 5.35958 3.3956 16.6816
1 3.39527 3.41083 17.0786
1 5.35585 3.39297 18.662
2 3.3845 3.41359 19.0436
1 3.3774 5.4243 19.4441
1 3.38678 3.5933 20.9701
2 3.31306 5.47055 21.462
1 5.18 5.44734 21.9426
1 3.35784 5.39608 23.4953
2 5.3684 5.47843 23.8775
1 5.3509 3.60924 24.0029
1 5.32385 5.55171 25.8431
1 3.16191 3.39226 26.4332
1 5.35835 3.38146 28.5611
2 3.37744 7.49466 -0.199457
1 3.37592 9.40787 0.209587
1 3.42329 7.59515 1.7552
2 3.4071 9.43466 2.25016
1 5.43105 9.37592 2.67196
1 3.40212 9.29121 4.20784
2 5.36184 9.24149 4.64417
1 5.37941 7.35733 5.01895
1 5.34067 9.27493 6.66637
2 5.36799 7.40173 7.06827
1 3.38722 7.3302 7.48423
1 5.36641 7.33705 9.03819
2 3.39138 7.35423 9.45844
1 3.40555 9.30026 9.85333
1 3.40639 7.34478 11.449
2 3.35912 9.31167 11.8352
1 5.24144 9.29213 12.3125
1 3.50614 9.29031 13.8124
2 5.40015 9.27772 14.2858
1 5.35096 7.32612 14.686
1 5.3144 9.28487 16.2786
2 5.33415 7.32842 16.6633
1 3.37283 7.33532 17.0835
1 5.32174 7.32462 18.6469
2 3.37323 7.35611 19.0618
1 3.37918 9.31761 19.4603
1 3.36657 7.37272 21.0462
2 3.38712 9.31933 21.4318
1 5.35212 9.29409 21.8049
1 3.51466 9.30497 23.3693
2 5.35232 9.30955 23.8696
1 5.3525 7.37493 24.2517
1 5.34682 9.19538 25.8176
2 5.34147 7.37095 26.3313
1 3.37752 7.39129 26.7171
1 5.35539 7.43299 28.3126
2 3.38317 11.3131 28.7275
1 3.40722 13.2409 0.178083
1 3.39271 11.3114 1.83619
2 3.43593 13.2362 2.14704
1 5.46129 13.1991 2.31727
1 3.41689 13.2427 4.02197
1 5.3371 11.102 5.14311
1 5.31433 13.2303 7.00842
2 5.25872 11.2618 7.08465
1 3.35634 11.2502 7.47903
1 5.30298 11.2478 9.09553
2 3.37244 11.2693 9.47135
1 3.38332 13.2435 9.88759
1 3.39457 11.2823 11.4502
2 3.40537 13.2485 11.8691
1 5.36239 13.2539 12.3042
1 3.40552 13.2661 13.86
2 5.36248 13.1494 14.2812
1 5.33689 11.2225 14.6339
1 5.35244 13.0684 16.3008
2 5.33815 11.1862 16.6474
1 3.31058 11.2576 17.0665
1 5.1561 11.2712 18.5805
2 3.28495 11.2842 19.0804
1 3.36464 13.263 19.4947
1 3.34691 11.2879 21.0558
2 3.28369 13.2567 21.4841
1 5.15163 13.2766 21.9781
1 3.31893 13.2629 23.5155
2 5.34588 13.1918 23.9212
1 5.34504 11.2665 23.9613
1 5.33129 13.3689 25.8944
1 3.18965 11.3 26.8049
1 5.38953 11.2807 28.5934
2 3.41652 15.1745 -0.189294
1 3.38811 17.0888 0.178862
1 3.43673 15.1663 1.81255
2 3.39341 17.0649 2.19683
1 5.38434 17.1694 2.30836
1 3.24956 17.163 4.1307
1 5.3768 15.22 5.26233
1 5.38413 17.2064 7.00694
2 5.36631 15.2184 7.13858
1 3.39191 15.211 7.47926
1 5.35967 15.2164 9.09282
2 3.39078 15.2106 9.46217
1 3.37929 17.1759 9.85511
1 3.38545 15.2101 11.4456
2 3.36327 17.1764 11.8408
1 5.21511 17.1617 12.0374
1 3.24196 17.1678 13.8401
1 5.36113 15.0234 14.9102
2 5.359 14.8617 16.8074
1 3.45361 15.2439 17.1043
1 5.34804 15.2301 18.6827
2 3.37834 15.2336 19.0926
1 3.35515 17.1873 19.4793
1 3.34517 15.2276 21.0656
2 3.33998 17.1905 21.4527
1 5.31227 17.2294 21.576
1 3.17619 17.2075 23.3868
1 5.34088 15.0922 24.3686
1 5.37608 17.1879 26.2839
2 5.36729 15.268 26.3382
1 3.40648 15.2271 26.7205
1 5.40611 15.161 28.3237
2 3.39224 19.0105 -0.212258
1 3.38901 20.8904 -0.0217993
1 3.38278 18.9222 1.7342
1 5.55511 21.1314 2.73562
1 3.39308 21.1674 4.56712
2 5.37965 21.2206 4.67214
1 5.39815 19.3492 5.15343
1 5.40167 21.187 6.68192
2 5.47042 19.1832 7.08783
1 3.58863 19.168 7.54169
1 5.42037 19.1667 9.08985
2 3.41673 19.1088 9.46346
1 3.35375 21.0245 9.81952
1 3.45098 19.1379 11.4587
2 3.08755 20.9776 11.7705
1 3.7111 21.0818 13.5717
2 5.3505 21.2196 14.5271
1 5.3418 19.3334 14.9727
1 5.32578 21.2966 16.4206
2 5.35793 19.4845 16.8561
1 3.4532 19.0973 17.1142
1 5.34745 19.1644 18.7181
2 3.3746 19.1398 19.0967
1 3.35334 21.1037 19.461
1 3.34323 19.1533 21.0666
2 3.35235 21.1061 21.4442
1 5.32242 21.0996 21.5335
1 3.1812 21.0976 23.379
1 5.35321 19.1622 24.5229
1 5.38385 21.1314 26.2858
2 5.36911 19.1591 26.3992
1 3.38829 19.1226 26.7082
1 5.37255 19.1343 28.349
1 3.24883 25.2673 0.334292
1 3.40418 23.2901 2.10103
2 3.37726 25.1542 2.29608
1 5.36851 25.0551 2.64059
1 3.39375 25.0912 4.25123
2 5.36283 25.0606 4.62733
1 5.36092 23.1225 5.04957
1 5.36553 25.0505 6.6317
2 5.35887 23.1091 7.04919
1 3.38849 23.0895 7.44676
1 5.35714 23.0773 9.02573
2 3.40781 22.9494 9.4101
1 3.38799 24.8233 9.62996
1 3.5168 22.7724 11.3658
1 5.27657 25.0742 12.4612
1 3.32536 25.0777 14.2612
2 5.25558 25.095 14.3456
1 5.3417 23.1354 14.7151
1 5.34956 25.112 16.318
2 5.35588 23.2064 16.7222
1 3.50562 23.1412 17.1931
1 5.34805 23.0961 18.759
2 3.37885 23.0676 19.1214
1 3.35099 25.002 19.4596
1 3.3811 23.0489 21.0903
2 3.36256 24.9605 21.4672
1 5.29998 25.0381 21.8599
1 3.35174 24.9853 23.451
2 5.25302 25.0271 23.8566
1 5.38622 23.2118 24.3873
1 5.33593 25.0352 25.9766
2 5.38674 23.089 26.3273
1 3.41058 23.0845 26.3802
1 5.57005 23.1133 28.2563
1 7.36487 1.39427 0.455188
1 7.35285 -0.585518 2.21242
2 7.34274 1.4121 2.32557
1 9.3084 1.41873 2.6762
1 7.33875 1.41726 4.28005
2 9.30795 1.42341 4.64621
1 9.31322 27.0346 5.04759
1 9.34314 1.42105 6.6184
2 9.3318 -0.540981 7.03064
1 7.40305 -0.530397 7.39881
1 9.33836 27.0403 9.02772
2 7.43339 27.062 9.41107
1 7.3627 1.47978 9.8236
1 7.34063 -0.348788 11.3511
2 7.33636 1.50882 11.8675
1 9.31222 1.44001 12.2864
1 7.33253 1.46841 13.8478
2 9.31001 1.55505 14.2569
1 9.3461 -0.295028 14.7355
1 9.3134 1.52085 16.2965
2 9.3172 27.1887 16.6869
1 7.32323 27.0953 16.7506
1 9.51131 27.0904 18.6133
1 7.38691 1.54099 19.4917
1 7.36949 -0.596199 21.4171
2 7.47169 1.34338 21.4632
1 9.39853 1.40756 21.8635
1 7.57891 1.46058 23.4243
2 9.43544 1.50583 23.9099
1 9.40428 -0.368721 24.3832
1 9.3721 1.45623 25.9384
2 9.35318 27.0439 26.3196
1 7.40878 -0.556715 26.3346
1 9.51752 -0.547532 28.2735
1 7.31477 5.5039 0.285487
1 7.36238 3.3939 2.18186
2 7.43209 5.33358 2.24589
1 9.34325 5.34502 2.65718
1 7.39415 5.37339 4.28399
2 9.32902 5.34267 4.64537
1 9.33048 3.38249 5.06078
1 9.34385 5.33695 6.63056
2 9.41374 3.37934 7.04146
1 7.54239 3.38516 7.53783
1 9.37841 3.3854 9.0668
2 7.35862 3.39783 9.46514
1 7.34055 5.31573 9.82187
1 7.35032 3.3961 11.4595
2 7.25888 5.28373 11.8683
1 9.12739 5.36329 12.3828
1 7.28714 5.36029 13.9073
2 9.28508 5.38661 14.3163
1 9.29665 3.44034 14.6912
1 9.26634 5.38223 16.2897
2 9.29911 3.43388 16.6893
1 7.32357 3.38893 17.0778
1 9.31552 3.39482 18.6617
2 7.34043 3.43457 19.0571
1 7.30361 5.34828 19.1476
1 7.38737 3.26316 21.0221
1 9.50823 5.32652 21.9961
1 7.35511 5.37153 23.8246
2 9.33271 5.28607 23.9315
1 9.37961 3.39933 24.3143
1 9.35872 5.34624 25.9657
2 9.43718 3.39876 26.2974
1 7.56161 3.38303 26.4419
1 9.52285 3.37319 28.2512
2 7.24212 7.40042 -0.150803
1 7.33622 9.55964 0.499592
1 7.34575 7.27172 1.81868
2 7.34335 9.03218 2.34835
1 9.26199 9.32258 2.64934
1 7.34764 9.2816 4.2425
2 9.31688 9.29325 4.6261
1 9.31646 7.28149 5.01483
1 9.30343 9.10346 6.54858
2 9.31198 7.23571 7.05422
1 7.34857 7.29841 7.45705
1 9.31865 7.31787 9.04671
2 7.33495 7.31415 9.41661
1 7.33263 9.28986 9.51374
1 7.31755 7.14248 11.3432
1 9.3777 9.31057 12.451
1 7.31554 9.29394 14.2372
2 9.2201 9.30304 14.3347
1 9.31016 7.35658 14.6686
1 9.35706 9.30166 16.2622
2 9.29043 7.33918 16.6441
1 7.27239 7.35069 17.022
1 9.11283 7.32387 18.5657
2 7.22895 7.26201 19.0439
1 7.26888 9.14129 19.4899
1 7.31388 7.40123 21.0231
2 7.31443 9.2709 21.4613
1 9.27992 9.29284 21.5406
1 7.19315 9.27215 23.4046
1 9.30819 7.15352 24.3871
1 9.34482 9.30491 26.2429
2 9.31883 7.33793 26.3186
1 7.28206 7.38542 26.7199
1 9.09972 7.3773 28.2522
2 7.33376 11.2836 28.5131
1 7.38653 12.9863 0.473679
2 7.35786 13.5599 2.28874
1 9.27976 13.2549 2.60456
1 7.50621 13.2804 4.15798
2 9.37045 13.2485 4.64145
1 9.30287 11.268 4.71732
1 9.30992 13.4376 6.56068
1 7.13752 11.2864 7.52005
1 9.27182 11.2665 9.40235
2 7.29881 11.2708 9.4476
1 7.32474 13.2405 9.79444
1 7.28345 11.4258 11.3823
2 7.33474 13.2479 11.8889
1 9.31226 13.2079 12.2991
1 7.33434 13.2352 13.8614
2 9.31809 13.2307 14.273
1 9.36324 11.2522 14.6596
1 9.27265 13.2459 16.2493
2 9.31915 11.2764 16.626
1 7.34214 11.2324 16.7329
1 9.45069 11.2981 18.556
1 7.32016 13.4876 19.1927
1 7.33024 11.136 21.333
1 9.51743 13.2709 22.0279
1 7.33703 13.265 23.8336
2 9.33177 13.3291 23.9451
1 9.37599 11.47 24.3939
1 9.36596 13.2951 25.9511
2 9.44581 11.2854 26.3125
1 7.54259 11.2814 26.6644
1 9.32608 11.3086 28.3062
2 7.34762 15.3099 -0.187537
1 7.37486 17.2363 0.186396
1 7.35417 15.3341 1.75921
2 7.36943 17.2417 2.18534
1 9.3723 17.199 2.60988
1 7.53433 17.2026 4.1239
2 9.407 17.2052 4.63264
1 9.32643 15.2748 5.02452
1 9.33152 17.2136 6.62172
2 9.30807 15.3116 7.0499
1 7.33784 15.2102 7.44725
1 9.31263 15.2203 9.02815
2 7.33931 15.2015 9.41062
1 7.37376 17.1721 9.50674
1 7.36143 15.0642 11.3519
1 9.36807 17.1795 12.4526
1 7.49847 17.1578 14.2394
2 9.40052 17.1424 14.3367
1 9.3259 15.1872 14.6837
1 9.31592 17.1377 16.3135
2 9.29458 15.2018 16.6701
1 7.26139 15.2725 17.075
1 9.30087 15.234 18.6384
2 7.3378 15.3668 19.0491
1 7.34205 17.269 19.442
1 7.33017 15.4485 20.9983
2 7.26077 17.2949 21.4946
1 9.19102 17.2094 21.9472
1 7.46414 17.1926 23.4516
2 9.37931 17.1119 23.9175
1 9.34296 15.2186 24.3256
1 9.30947 17.1305 25.9759
2 9.32221 15.2086 26.3313
1 7.33934 15.193 26.7465
1 9.29162 15.1901 28.3039
2 7.35275 19.166 28.7086
1 7.36864 21.0996 0.242689
1 7.37484 19.1626 1.82075
2 7.43688 21.1146 2.23243
1 9.33845 21.1391 2.62252
1 7.37894 21.1344 4.25344
2 9.24662 21.1425 4.67499
1 9.34076 19.1673 5.05005
1 9.29206 21.1292 6.64039
2 9.3244 19.1681 7.04523
1 7.38021 19.1576 7.41363
1 9.32399 19.1675 9.04234
2 7.36126 19.1565 9.38203
1 7.32698 21.1287 9.45226
1 7.25813 19.228 11.2599
1 9.50401 21.092 12.3378
1 7.20651 21.0935 14.0779
2 9.27267 20.9786 14.2467
1 9.30944 19.0727 14.6444
1 9.27248 20.8713 16.198
2 9.29491 19.0258 16.6902
1 7.25984 19.1003 17.1085
1 9.30478 19.1556 18.6485
2 7.33941 19.1663 19.088
1 7.32412 21.0915 19.4385
1 7.33384 19.1825 21.0881
2 7.32895 21.1188 21.4116
1 9.33497 21.1416 21.5395
1 7.33476 21.1021 23.2841
1 9.31438 18.9698 24.4271
1 9.31582 21.1008 26.2637
2 9.30878 19.1333 26.3555
1 7.35253 19.1552 26.7396
1 9.34108 19.1487 28.3329
2 7.45166 23.0027 28.7058
1 7.37236 24.8755 0.340161
1 7.37549 23.0386 1.85167
2 7.34446 25.0317 2.26775
1 9.299 25.0314 2.62844
1 7.32211 25.0239 4.23789
2 9.21366 25.0543 4.66129
1 9.27107 23.0987 5.0768
1 9.28946 25.0763 6.62945
2 9.21258 23.1029 7.05398
1 7.3141 23.1218 7.41384
1 9.24919 23.1088 9.08109
2 7.31197 23.1011 9.38229
1 7.34841 25.0875 9.51585
1 7.20147 23.026 11.2591
1 9.53474 25.0749 11.9958
1 7.14265 25.0799 14.191
1 9.29221 22.8438 14.4177
1 9.34447 25.3148 16.5446
1 7.20182 23.1252 17.2
1 9.29577 23.079 19.0449
2 7.32237 23.0005 19.1325
1 7.2889 24.8809 19.5634
1 7.30811 23.045 21.1311
2 7.32093 25.0324 21.4882
1 9.30879 25.0567 21.5569
1 7.13833 25.0246 23.4107
1 9.2997 23.0975 24.4716
1 9.33833 25.0784 26.2737
2 9.31464 23.0947 26.3373
1 7.38712 23.0856 26.6811
1 9.3489 23.0755 28.2866
2 11.3583 27.1222 -0.152482
1 11.3154 1.44252 0.237089
1 11.2826 -0.448564 1.79823
2 11.2789 1.45809 2.2494
1 13.2515 1.45274 2.66399
1 11.276 1.44855 4.22499
2 13.249 1.54898 4.63227
1 13.2365 -0.305251 5.1241
1 13.2548 1.51113 6.66738
2 13.2464 27.1833 7.08289
1 11.2798 27.0651 7.45737
1 13.2537 27.0636 9.05427
2 11.2933 -0.557168 9.43856
1 11.2872 1.36647 9.83537
1 11.305 27.0216 11.4326
2 11.285 1.32865 11.8657
1 13.2576 1.38817 12.2867
1 11.2876 1.45892 13.8417
2 13.2556 1.4514 14.2607
1 13.2885 27.1126 14.6513
1 13.2632 1.46422 16.2532
2 13.279 -0.438459 16.6692
1 11.3507 27.0985 17.0683
1 13.2914 27.054 18.6603
2 11.3884 -0.546715 19.0841
1 11.3168 1.40038 19.4992
1 11.3087 27.0267 21.0674
2 11.309 1.40096 21.4877
1 13.2307 1.39667 21.9032
1 11.3219 1.4315 23.489
2 13.2399 1.41481 23.91
1 13.2363 27.027 24.3215
1 13.223 1.40804 25.8917
2 13.1791 27.0282 26.2954
1 11.3115 27.0186 26.7214
1 13.2108 -0.591289 28.3522
2 11.376 3.32811 28.7378
1 11.31 5.19905 0.348732
1 11.2906 3.35772 1.87233
2 11.2869 5.35664 2.28026
1 13.2337 5.37 2.65488
1 11.2879 5.33961 4.2563
2 13.2341 5.3798 4.64991
1 13.2496 3.43578 5.06126
1 13.2518 5.37611 6.63755
2 13.262 3.42707 7.06089
1 11.3118 3.3816 7.4522
1 13.2557 3.38204 9.0456
2 11.3012 3.37218 9.43223
1 11.2913 5.36768 9.5467
1 11.3017 3.19498 11.3608
1 13.2358 5.3475 12.4998
1 11.2561 5.36801 14.241
2 13.2491 5.37031 14.3717
1 13.2524 3.40105 14.6923
1 13.2512 5.35033 16.322
2 13.2524 3.40152 16.6791
1 11.2799 3.3976 17.1009
1 13.2522 3.35532 18.6522
2 11.2854 3.2979 19.0773
1 11.2983 5.16845 19.5913
1 11.3103 3.33242 21.1002
2 11.3746 5.33886 21.5251
1 13.2685 5.31856 21.9109
1 11.338 5.31217 23.5386
2 13.2589 5.29431 23.9189
1 13.254 3.37133 24.3243
1 13.2613 5.31148 25.9286
2 13.2009 3.36683 26.3018
1 11.34 3.38374 26.7012
1 13.2499 3.37568 28.3476
1 11.2792 9.49474 0.348335
1 11.2582 7.34722 2.17228
2 11.258 9.32822 2.27743
1 13.2381 9.2916 2.66789
1 11.2667 9.31871 4.23987
2 13.2384 9.30379 4.64584
1 13.2366 7.33921 5.06588
1 13.2582 9.30373 6.62569
2 13.2519 7.33759 7.04466
1 11.2794 7.33959 7.44318
1 13.243 7.33021 9.01544
2 11.2935 7.34483 9.40732
1 11.2399 9.36492 9.80251
1 11.4143 7.58933 11.3344
2 11.0792 9.40796 11.7492
1 11.6709 9.31878 13.553
2 13.2707 9.30468 14.5234
1 13.2748 7.34698 14.7273
1 13.2362 9.30077 16.3946
2 13.2625 7.30499 16.6835
1 11.2766 7.33513 16.7487
1 13.4363 7.25341 18.5908
1 11.2906 9.47976 19.5527
1 11.294 7.32973 21.4613
2 11.1981 9.31905 21.4931
1 13.0916 9.27812 21.9233
1 11.4109 9.43803 23.469
2 13.203 8.98281 23.818
1 13.2846 7.21309 24.3399
1 13.2154 9.58204 25.6425
2 13.2722 7.23583 26.2779
1 11.3223 7.36623 26.3761
1 13.4378 7.35595 28.1815
2 11.2595 11.3705 28.7608
1 11.275 13.2713 0.246445
1 11.2381 11.3277 1.86912
2 11.181 13.2606 2.23604
1 13.0621 13.2535 2.73657
1 11.2412 13.2585 4.25679
2 13.2274 13.2281 4.67721
1 13.2315 11.2701 5.04159
1 13.2298 13.2316 6.66072
2 13.3168 11.2697 7.02662
1 11.3988 11.2749 7.46894
1 13.1279 11.2743 8.98811
2 11.2131 11.2902 9.42232
1 11.2628 13.1989 9.8211
1 11.3481 11.2596 11.4384
2 11.2893 13.1533 11.8699
1 13.242 13.2676 12.3075
1 11.2826 13.2332 13.858
2 13.2447 13.2447 14.2829
1 13.2426 11.2651 14.7106
1 13.254 13.2592 16.2584
2 13.2518 11.3044 16.6638
1 11.2835 11.2975 17
1 13.1134 11.3254 18.5814
2 11.2784 11.3522 19.0769
1 11.2825 13.2383 19.4625
1 11.2886 11.3036 21.0999
2 11.3784 13.181 21.4928
1 13.2872 13.29 21.9111
1 11.411 13.2266 23.5123
2 13.2871 13.5679 23.8198
1 13.2724 12.9332 25.6022
2 13.2634 11.2737 26.5194
1 11.3308 11.3006 26.7926
1 13.2631 11.2866 28.4064
2 11.2698 15.193 28.7041
1 11.2878 17.1206 0.196097
1 11.2619 15.2078 1.81554
2 11.2968 17.1305 2.20977
1 13.2567 17.1617 2.64463
1 11.3089 17.1606 4.20861
2 13.2585 17.0647 4.628
1 13.2441 15.1729 5.06027
1 13.2458 17.0975 6.66856
2 13.2323 15.1792 7.06202
1 11.2728 15.1969 7.45085
1 13.2331 15.2239 9.04735
2 11.2715 15.1979 9.42145
1 11.2681 17.1824 9.53364
1 11.2717 15.0156 11.3543
1 13.4473 17.1965 12.371
1 11.3433 17.1579 14.2371
2 13.3013 17.1605 14.3063
1 13.2647 15.2062 14.6902
1 13.2902 17.1506 16.2893
2 13.2521 15.2041 16.6755
1 11.2793 15.1725 17.0735
1 13.2478 15.246 18.6513
2 11.2759 15.2158 19.0455
1 11.272 17.1901 19.154
1 11.3209 15.0496 20.9891
1 13.45 17.219 22.0096
1 11.3181 17.1871 23.8213
2 13.2926 17.2481 23.9526
1 13.2726 15.3349 24.3849
1 13.2498 17.2522 25.9572
2 13.2422 15.3412 26.3262
1 11.3117 15.1894 26.726
1 13.2495 15.1954 28.2741
2 11.264 19.0439 -0.184752
1 11.2498 21.4222 0.507157
1 11.2952 19.0452 1.75828
2 11.2779 20.8185 2.30448
1 13.1871 21.1921 2.34927
1 11.1073 21.146 4.16045
1 13.2466 18.92 5.12802
1 13.2559 20.8904 6.92261
2 13.2474 19.0139 7.08764
1 11.2741 19.1535 7.45256
1 13.2499 19.1258 9.05904
2 11.2843 19.1722 9.41892
1 11.29 21.1868 9.82696
1 11.3137 19.3449 11.3417
2 11.3829 21.2148 11.8613
1 13.2943 21.1194 12.2644
1 11.3549 21.1041 13.881
2 13.2826 21.0993 14.2464
1 13.2869 19.0906 14.6588
1 13.2592 20.9241 16.1778
2 13.2552 19.0544 16.6823
1 11.2849 19.131 17.0794
1 13.2556 19.1505 18.6597
2 11.2803 19.1752 19.043
1 11.3143 21.1732 19.4398
1 11.3087 19.3469 20.973
2 11.3091 21.2188 21.4512
1 13.3217 21.1419 21.8705
1 11.4806 21.1482 23.3867
2 13.3507 21.1285 23.8962
1 13.2673 19.174 24.3221
1 13.2547 21.1339 25.8827
2 13.2232 19.1889 26.31
1 11.2689 19.1713 26.744
1 13.1828 19.2114 28.3097
2 11.2862 23.0938 28.4993
1 11.2485 24.7721 0.506204
2 11.2576 25.3586 2.30975
1 13.1758 25.0013 2.33907
1 11.0856 25.0465 4.15897
1 13.2579 23.0938 4.81595
1 13.2498 25.3058 6.91902
1 11.0788 23.1092 7.54965
1 13.263 23.1035 9.38496
2 11.2664 23.1166 9.4779
1 11.3127 25.0716 9.83248
1 11.3014 23.1211 11.4582
2 11.4193 25.0755 11.8176
1 13.3453 25.0886 12.2213
1 11.5198 25.087 13.7745
2 13.3703 25.0875 14.2467
1 13.2965 23.0904 14.3573
1 13.2831 25.2695 16.1731
1 11.2912 23.0942 17.2834
1 13.2896 23.101 19.0445
2 11.2896 23.1112 19.1573
1 11.3154 25.0773 19.4649
1 11.2936 23.1251 21.1159
2 11.2903 25.0766 21.4411
1 13.2563 25.0728 21.8223
1 11.4292 25.0577 23.3812
2 13.2496 25.0644 23.9091
1 13.2987 23.0945 24.3064
1 13.2476 25.0577 25.882
2 13.2738 23.0919 26.2669
1 11.2929 23.0929 26.6154
1 13.2305 23.0995 28.2341
2 15.1977 -0.553871 28.7537
1 15.2066 1.41473 0.263185
1 15.1602 27.0308 1.83929
2 15.2079 1.42209 2.2389
1 17.177 1.41677 2.65772
1 15.2212 1.4533 4.21753
2 17.1797 1.43047 4.64109
1 17.1687 27.0469 5.06226
1 17.1855 1.42902 6.62298
2 17.1665 -0.538334 7.03951
1 15.2186 27.064 7.45817
1 17.1593 27.0282 9.03295
2 15.2098 -0.565097 9.44342
1 15.2208 1.36322 9.83312
1 15.2405 27.0139 11.4348
2 15.223 1.32105 11.8681
1 17.1944 1.40658 12.2942
1 15.2303 1.42739 13.8476
2 17.1914 1.42546 14.2751
1 17.1849 -0.537703 14.7021
1 17.1975 1.42674 16.2544
2 17.2013 27.0415 16.6797
1 15.2423 27.0651 17.0928
1 17.2026 -0.558454 18.66
2 15.2365 -0.553038 19.077
1 15.2108 1.40711 19.4863
1 15.2046 -0.555408 21.0556
2 15.1143 1.40336 21.4771
1 16.9835 1.42718 21.9245
1 15.1517 1.42171 23.5098
2 17.1602 1.49829 23.8633
1 17.1604 -0.382556 23.977
1 17.1241 1.48405 25.7568
1 15.03 -0.53444 26.8173
1 17.178 27.0598 28.6414
2 15.2132 3.38714 28.7502
1 15.213 5.35686 0.237764
1 15.179 3.38882 1.83675
2 15.1747 5.35219 2.22454
1 17.0907 5.35793 2.61474
1 15.1734 5.37148 4.22995
2 17.061 5.3658 4.66064
1 17.1575 3.39333 5.07187
1 17.1695 5.36226 6.63397
2 17.1845 3.39101 7.05112
1 15.2248 3.371 7.44617
1 17.1909 3.37457 9.0334
2 15.2231 3.34227 9.41763
1 15.2236 5.30251 9.50808
1 15.2155 3.18673 11.3573
1 17.3896 5.38169 12.3805
1 15.2453 5.35962 14.2329
2 17.2144 5.36592 14.3151
1 17.2029 3.3929 14.6948
1 17.2367 5.3612 16.2794
2 17.1978 3.39543 16.6738
1 15.2307 3.38312 17.0905
1 17.1979 3.36988 18.6504
2 15.2217 3.34937 19.0652
1 15.2416 5.2644 19.4528
1 15.1811 3.34597 21.0604
2 15.2083 5.23912 21.4909
1 17.1361 5.37689 21.8453
1 15.1957 5.31762 23.4861
2 17.0975 5.32896 23.8799
1 17.1563 3.41646 23.9433
1 17.1817 5.49717 25.8623
1 15.0516 3.37379 26.8109
1 17.1875 3.38136 28.648
2 15.3098 7.3195 -0.183081
1 15.2428 9.25066 0.219627
1 15.2079 7.30769 1.81023
2 15.212 9.20214 2.2446
1 17.1833 9.27358 2.66439
1 15.2124 9.28683 4.22197
2 17.1832 9.30126 4.64543
1 17.1586 7.33857 5.07312
1 17.206 9.30183 6.62778
2 17.1882 7.33376 7.05302
1 15.2251 7.32259 7.41962
1 17.2022 7.32684 9.04117
2 15.219 7.23616 9.38796
1 15.2031 9.12565 9.53179
1 15.1099 7.31214 11.2752
1 17.3234 9.29047 12.3047
1 15.1299 9.29512 14.082
2 17.1193 9.30316 14.2624
1 17.182 7.33625 14.6852
1 17.197 9.30893 16.2511
2 17.2161 7.33349 16.6598
1 15.2815 7.29772 17.0393
1 17.2322 7.32692 18.6462
2 15.3216 7.19106 19.0441
1 15.263 9.07513 19.2244
1 15.2165 7.09757 20.998
1 17.4234 9.31089 21.6296
1 14.9804 9.46069 23.7422
1 17.1536 7.22457 24.3517
1 17.2096 9.35181 26.2376
2 17.2002 7.41318 26.3137
1 15.2516 7.36537 26.6634
1 17.2123 7.31428 28.2999
2 15.2442 11.2635 -0.156832
1 15.2104 13.2473 -0.0948268
1 15.2343 11.0744 1.7598
1 17.3176 13.2288 2.75506
1 15.2092 13.2409 4.57617
2 17.1882 13.2414 4.69308
1 17.2124 11.265 5.04664
1 17.2009 13.2428 6.65784
2 17.2293 11.2714 7.01945
1 15.2558 11.2728 7.12307
1 17.3968 11.2684 8.96096
1 15.2072 13.4746 9.95986
1 15.1302 11.4766 11.7478
2 15.2022 13.3664 11.9111
1 17.1615 13.2487 12.2936
1 15.2117 13.2864 13.8887
2 17.1693 13.2476 14.2858
1 17.1722 11.2728 14.6617
1 17.196 13.2454 16.2606
2 17.2143 11.2759 16.6322
1 15.2314 11.2837 16.7417
1 17.4016 11.2819 18.5631
1 15.2297 13.4957 19.5681
1 15.2242 11.5117 21.3392
2 15.2437 13.3852 21.5157
1 17.1967 13.2911 21.9246
1 15.1934 13.2854 23.4978
2 17.1815 13.3471 23.9023
1 17.1871 11.4881 24.4155
1 17.1694 13.3063 25.9324
2 17.1804 11.3193 26.3547
1 15.2077 11.2564 26.7659
1 17.1938 11.2966 28.33
2 15.1958 15.2312 -0.211168
1 15.1713 17.2553 0.208039
1 15.2199 15.4135 1.71779
2 15.2122 17.2861 2.23163
1 17.1734 17.211 2.65013
1 15.2206 17.1751 4.21696
2 17.1711 17.1833 4.64426
1 17.1601 15.2151 5.07416
1 17.164 17.1883 6.62681
2 17.0926 15.2177 7.05143
1 15.1909 15.2216 7.47461
1 17.1317 15.2493 9.07609
2 15.1975 15.3327 9.45934
1 15.2263 17.2298 9.87736
1 15.2292 15.3015 11.4917
2 15.3217 17.2241 11.8741
1 17.2224 17.2097 12.295
1 15.2886 17.1853 13.8984
2 17.2102 17.1864 14.2897
1 17.197 15.2168 14.704
1 17.2034 17.1874 16.2657
2 17.1945 15.2167 16.6793
1 15.2296 15.23 17.0963
1 17.1998 15.2484 18.6572
2 15.2203 15.3426 19.0678
1 15.2385 17.23 19.4986
1 15.2391 15.3107 21.1207
2 15.3252 17.2296 21.5003
1 17.2325 17.2005 21.9129
1 15.2836 17.213 23.5212
2 17.2112 17.1822 23.9093
1 17.1771 15.2423 24.3142
1 17.1711 17.1849 25.9049
2 17.1493 15.2336 26.3031
1 15.1735 15.2288 26.6877
1 17.1385 15.2177 28.2858
2 15.1025 19.1886 -0.177175
1 15.205 21.1427 0.225041
1 15.1787 19.1995 1.81877
2 15.1986 21.1537 2.20338
1 17.2443 21.1425 2.61257
1 15.4119 21.1361 4.12681
2 17.2759 21.1276 4.6438
1 17.1976 19.1546 5.06975
1 17.2157 21.1197 6.62839
2 17.1859 19.1527 7.05229
1 15.2281 19.1289 7.47915
1 17.1895 19.1639 9.03878
2 15.221 19.1699 9.45972
1 15.229 21.126 9.87677
1 15.2531 19.1715 11.4488
2 15.2435 21.1285 11.8655
1 17.198 21.1229 12.2926
1 15.2397 21.1122 13.8571
2 17.1952 21.1235 14.2763
1 17.2007 19.1585 14.7021
1 17.2111 21.1204 16.257
2 17.195 19.1547 16.6808
1 15.2325 19.1422 17.1053
1 17.2012 19.1655 18.6619
2 15.2264 19.1735 19.0823
1 15.2423 21.126 19.4965
1 15.2525 19.1702 21.069
2 15.2497 21.1299 21.4782
1 17.2093 21.0997 21.8968
1 15.252 21.0944 23.4684
2 17.2049 21.0028 23.8774
1 17.185 19.1171 24.2954
1 17.1773 21.0312 25.9296
2 17.1638 19.1201 26.286