1756
Atoms. Timestep: 1095
2 -0.120361 -0.133888 -0.0899275
1 -0.127855 1.75995 0.367452
1 -0.0689797 -0.122261 1.85014
2 -0.067928 1.77592 2.31512
1 1.97165 1.75995 2.91347
1 26.5438 1.81789 4.27106
2 1.52776 1.79561 4.7847
1 1.83362 -0.0135729 5.17614
1 1.77845 1.80618 6.70498
2 1.78501 -0.137777 7.10461
1 -0.113393 -0.132737 7.46751
1 1.76979 -0.133749 9.07291
2 26.5141 26.6307 9.45789
1 0.00595059 1.82884 9.92547
1 26.4528 -0.112434 11.4261
2 26.6307 1.7871 11.8796
1 1.77275 1.79393 12.2916
1 26.6218 1.7825 13.8739
2 1.77643 1.77369 14.2755
1 1.77413 -0.113587 14.7348
1 1.78502 1.78789 16.2752
2 1.81795 -0.137392 16.6886
1 -0.0484057 -0.136956 17.1163
1 1.78562 26.6188 18.7086
2 26.6151 26.6289 19.0601
1 26.5806 1.75355 19.4519
1 26.5841 26.628 21.0445
2 -0.138967 1.77586 21.4309
1 1.73438 1.70606 21.8031
1 -0.0976223 1.78336 23.4595
2 1.8695 1.49008 23.7461
1 1.70179 26.5037 24.3318
1 1.83773 1.92182 25.6296
2 1.75062 -0.138531 26.2639
1 -0.140274 26.6116 26.7283
1 1.77331 -0.096121 28.2451
2 26.6131 3.66942 28.6325
1 26.6084 5.61796 0.343093
1 -0.0840542 3.68466 1.9047
2 -0.121935 5.60181 2.29301
1 1.77571 5.63284 2.78012
1 -0.12916 5.65241 4.31005
2 1.79988 5.58136 4.6949
1 1.86994 3.64181 5.05951
1 1.74249 5.53962 6.62032
2 1.788 3.67775 7.09163
1 -0.134817 3.6544 7.48643
1 1.784 3.78304 9.07114
2 -0.137089 3.71135 9.47847
1 26.5116 5.63482 9.88884
1 26.5883 3.72011 11.4774
2 26.6033 5.58899 11.9046
1 1.79443 5.61234 12.2131
1 -0.0381364 5.58528 13.8367
2 1.82561 5.59157 14.2545
1 1.78861 3.68131 14.6803
1 1.77366 5.59943 16.2564
2 1.76807 3.69205 16.6685
1 26.6168 3.67376 17.0597
1 1.75972 3.67946 18.6481
2 26.6265 3.67851 19.0601
1 26.6249 5.59303 19.4743
1 -0.113402 3.68496 21.0437
2 -0.136245 5.58001 21.459
1 1.77913 5.58695 21.867
1 -0.0833515 5.54167 23.4575
2 1.79713 5.85121 23.7529
1 1.84081 5.41048 25.5832
2 1.64141 3.66471 26.4824
1 -0.115735 4.41939 26.8028
1 1.75081 3.53756 28.3605
2 26.6305 7.52774 28.6571
1 -0.0905604 9.46538 0.269429
1 -0.128575 7.51626 1.84862
2 -0.122932 9.40874 2.21679
1 1.79899 9.48205 2.6225
1 26.6025 9.30253 4.14181
2 1.78838 9.55147 4.51192
1 1.77243 7.84993 5.43503
2 1.8186 7.26852 7.18704
1 26.3582 7.61285 7.69898
1 1.74283 7.52667 9.00853
2 0.0114115 7.47068 9.58366
1 26.495 9.28498 9.93141
1 26.5649 7.47298 11.5123
2 26.5881 9.43726 11.8685
1 1.74107 9.43051 12.2301
1 26.6103 9.42366 13.8246
2 1.76181 9.40242 14.2305
1 1.78262 7.49617 14.6576
1 1.76098 9.39571 16.1863
2 1.77105 7.50906 16.6663
1 26.6268 7.50363 17.0718
1 1.76914 7.49583 18.6624
2 26.6212 7.49803 19.0721
1 26.4999 9.38191 19.5217
1 -0.131096 7.48875 21.0814
2 26.6152 9.42132 21.4658
1 1.7624 9.37076 21.8621
1 26.6302 9.44801 23.4365
2 1.77026 9.45819 23.8267
1 1.76153 7.60681 24.2949
1 1.79097 9.46074 25.832
2 1.77697 7.53016 26.2385
1 -0.125632 7.47199 26.654
1 1.73773 7.61019 28.1902
2 26.3863 11.3371 -0.0234219
1 -0.0703614 13.2023 0.290929
1 26.6232 11.3333 1.87777
2 26.6203 13.2577 2.27826
1 1.73814 13.1789 2.6816
1 26.5783 13.257 4.24181
2 1.69742 13.086 4.71455
1 2.55362 11.1536 5.28019
1 1.72404 13.3304 6.68184
2 1.77093 11.5248 7.03814
1 26.6097 11.1447 7.5065
1 1.71919 11.355 9.03079
2 26.6289 11.0398 9.40161
1 -0.110754 11.4912 11.2446
2 26.6093 13.1918 12.0942
1 1.7612 13.2818 12.3425
1 -0.134605 13.2551 13.9701
2 1.80339 13.2572 14.296
1 1.77758 11.3053 14.5975
1 1.77874 13.1359 16.1879
2 1.76263 11.2708 16.7522
1 26.5994 11.3021 17.0536
1 1.73557 12.0751 18.5693
2 -0.0339717 11.3332 19.0471
1 26.5171 13.3047 19.5173
1 -0.0962094 11.3437 21.0442
2 26.6166 13.2718 21.4637
1 1.76341 13.2937 21.8864
1 26.62 13.2516 23.4419
2 1.73558 13.2759 23.8516
1 1.74739 11.3463 24.1946
1 1.76297 13.2498 25.8253
2 1.78916 11.3522 26.0746
1 0.145442 11.3373 26.9696
2 -0.12455 15.1414 28.6674
1 -0.134761 17.0656 0.280838
1 26.6213 15.1499 1.84556
2 -0.135593 17.0654 2.26834
1 1.76521 17.0552 2.66365
1 -0.130284 17.0727 4.25257
2 1.89124 17.0647 4.64725
1 1.60221 15.1399 5.12308
1 1.74826 17.0411 6.67704
2 1.79892 15.1761 7.06998
1 26.3667 15.1412 7.78312
1 1.88075 15.1319 9.01232
2 0.171413 15.4683 9.48986
1 26.5367 17.158 9.95254
1 26.5923 14.7763 11.1204
2 26.5821 17.1742 11.9293
1 1.73374 17.0327 12.0836
1 -0.135925 17.7714 13.8289
2 1.6129 17.051 14.0174
1 1.8435 15.3455 14.9447
2 1.76931 14.873 16.7846
1 -0.0951725 15.2158 17.0703
1 1.75538 15.189 18.6692
2 26.603 15.1968 19.0711
1 26.5573 17.1184 19.4844
1 26.5716 15.2236 21.0654
2 0.0871751 17.0748 21.3927
1 1.83537 17.0942 21.9452
1 26.4183 17.0766 23.25
2 1.76179 17.0758 23.8708
1 1.71006 15.1867 24.2652
1 1.73909 17.0752 25.8416
2 1.75906 15.159 26.2515
1 -0.129826 15.1736 26.6814
1 1.76329 15.151 28.245
2 -0.140159 18.9745 -0.124294
1 26.6313 20.8868 0.263289
1 -0.136848 18.9848 1.85876
2 26.6314 20.8952 2.27065
1 1.77677 20.8966 2.69865
1 26.6171 20.8811 4.26089
2 1.76317 20.8765 4.68346
1 1.64541 18.9992 5.1247
1 1.75371 20.8781 6.70952
2 1.6794 18.9649 7.07984
1 26.5937 18.9665 7.51084
1 1.73371 18.9454 9.09545
2 26.5944 19.0293 9.48657
1 -0.125407 20.9158 9.86356
1 26.6157 19.0633 11.448
2 26.6107 20.9177 11.8881
1 1.78314 20.8432 12.3038
1 -0.131853 20.8882 13.8729
2 1.78391 20.8898 14.291
1 1.82012 18.7953 14.9743
1 1.72811 20.9856 16.2529
2 1.74807 19.2399 16.7932
1 26.5069 18.9608 17.2645
1 1.84417 19.0026 18.6468
2 0.0841623 18.9776 19.1596
1 26.575 20.8373 19.4731
1 26.572 18.9415 21.0588
2 -0.0951805 20.8773 21.4777
1 1.78814 20.8855 21.8805
1 -0.10835 20.8869 23.4875
2 1.7843 20.8884 23.876
1 1.73251 18.9663 24.2754
1 1.76927 20.8906 25.8597
2 1.76637 18.9828 26.2678
1 -0.139936 18.9913 26.6854
1 1.76851 18.9769 28.2539
2 26.6306 22.8139 28.6528
1 26.6319 24.7273 0.273655
1 26.6202 22.7849 1.80048
2 -0.140494 24.7204 2.35914
1 1.77776 24.7124 2.63256
1 -0.125686 25.4921 4.22214
2 1.78267 24.7377 4.62103
1 1.77217 22.7259 5.17288
1 1.78125 24.7237 6.6351
2 1.78289 22.8056 7.09657
1 -0.134282 22.8175 7.49067
1 1.79328 22.7766 9.06572
2 26.6217 22.8117 9.46627
1 0.0207982 24.6919 9.92817
1 26.5007 22.7768 11.435
2 -0.0186422 24.7163 11.9006
1 1.7701 25.4843 12.3355
1 26.6047 24.7352 13.8858
2 1.77653 24.7333 14.1754
1 1.77979 22.8118 14.7057
1 1.78443 24.7316 16.2582
2 1.76018 22.8599 16.6735
1 26.6107 22.8544 17.0892
1 1.75142 22.8002 18.6591
2 26.6153 22.7903 19.0713
1 26.5816 24.7309 19.4706
1 -0.109846 22.7856 21.0369
2 26.5751 24.7088 21.4542
1 1.65143 24.7394 21.9372
1 26.5347 24.7593 23.4879
2 1.71151 24.6724 23.8728
1 1.77717 22.8124 24.2693
1 1.7857 24.6779 25.8727
2 1.76973 22.7885 26.2705
1 26.619 22.837 26.6585
1 1.76533 22.8015 28.2448
2 3.69124 26.6105 28.6248
1 3.69948 1.79872 0.187209
1 3.70778 -0.103877 1.76018
2 3.71125 1.77314 2.06983
1 5.47106 1.75861 2.90414
2 5.86926 1.71553 4.796
1 5.71123 -0.117111 5.12281
1 5.5483 1.72865 6.70165
2 5.60263 26.5994 7.09264
1 3.68653 26.6138 7.50577
1 5.61215 26.6141 9.06061
2 3.69774 -0.135775 9.47428
1 3.68169 1.79683 9.86121
1 3.80875 -0.100706 11.4194
2 3.69171 1.78916 11.8638
1 5.6019 1.80805 12.2794
1 3.69385 1.76785 13.8559
2 5.61707 1.76552 14.2727
1 5.61248 -0.13815 14.701
1 5.55762 1.78109 16.2643
2 5.58618 26.6299 16.6855
1 3.69168 -0.132432 17.0984
1 5.56266 -0.133381 18.7054
2 3.68466 -0.130959 19.0755
1 3.6723 1.76947 19.4897
1 3.73749 26.5678 21.0233
2 3.67842 1.78935 21.5433
1 5.59505 1.80979 21.8827
1 3.37423 2.61086 23.4282
2 5.48444 1.75737 23.9472
1 5.69947 26.5713 24.3377
1 6.3549 1.76578 25.8324
2 5.60944 -0.00537583 26.2862
1 3.64384 26.5173 26.69
1 5.61416 -0.0642525 28.2663
2 3.71016 3.8277 -0.0955433
1 4.44597 5.59856 0.326025
1 3.71479 3.66249 1.87931
2 3.68543 5.60311 2.17204
1 5.61108 5.51408 2.75081
1 3.70933 5.72635 4.31609
2 5.54662 5.28714 4.61372
1 5.50421 3.5243 5.11505
1 5.59458 5.74339 6.4434
2 5.58149 3.65851 7.07145
1 3.69781 3.72303 7.4843
1 5.60655 3.71349 9.03586
2 3.70073 3.72005 9.46853
1 3.7777 5.65865 9.86572
1 3.68797 3.69992 11.4414
2 3.71111 5.59716 11.8681
1 5.60752 5.59034 12.2812
1 3.69943 5.58563 13.8491
2 5.60596 5.60105 14.2684
1 5.63197 3.68215 14.6785
1 5.60174 5.60906 16.2529
2 5.5944 3.69569 16.6699
1 3.68329 3.69677 17.0809
1 5.59215 3.6739 18.6622
2 3.6767 3.67803 19.0579
1 3.69158 5.59952 19.4615
1 3.68331 3.69587 21.0026
2 3.69031 5.57703 21.4516
1 5.58682 5.5715 21.8839
1 3.66878 5.61242 23.4395
2 5.59304 5.60005 23.8733
1 5.64532 3.71055 24.2625
1 5.57732 5.59636 25.8593
2 5.58126 3.56398 26.2155
1 3.61347 3.84642 26.7666
1 5.66845 3.54856 28.1611
2 3.6748 7.40393 -0.114099
1 3.63086 9.46446 0.284749
1 3.71569 7.5251 1.86044
2 3.70594 9.40028 2.24269
1 5.62204 9.48955 2.64464
1 3.78585 9.23927 4.19246
2 5.60498 9.73466 4.54355
1 5.58249 9.26344 6.39047
2 5.58786 7.51168 7.04187
1 3.84007 7.52105 7.69615
2 3.47967 7.52243 9.58219
1 3.73984 9.38684 9.88356
1 3.68276 7.51435 11.4733
2 3.68137 9.43106 11.8769
1 5.58357 9.41481 12.2726
1 3.67867 9.42101 13.8426
2 5.60244 9.41819 14.255
1 5.59262 7.5133 14.6772
1 5.60876 9.42794 16.2394
2 5.61271 7.52125 16.6587
1 3.68286 7.51864 17.0766
1 5.61122 7.47347 18.6217
2 3.69824 7.49571 19.0649
1 3.82496 9.37052 19.51
1 3.66981 7.48527 21.0744
2 3.69707 9.3981 21.4696
1 5.6116 9.39607 21.8972
1 3.69072 9.43625 23.4473
2 5.59509 9.42724 23.882
1 5.58637 7.51145 24.297
1 5.55386 9.42422 25.8898
2 5.58884 7.51374 26.2769
1 3.66811 7.43933 26.6824
1 5.62333 7.63562 28.2332
2 3.94228 11.321 -0.0193836
1 3.61954 13.18 0.299323
1 3.75084 11.3458 1.90061
2 3.65921 13.2551 2.29579
1 5.7877 13.2586 2.89156
1 3.57685 13.3068 4.23034
2 5.33421 13.3109 4.77397
1 5.70535 11.4937 5.09368
1 5.53338 13.2575 6.72708
2 5.5772 11.3027 7.05937
1 3.66756 11.226 7.53867
1 5.58681 11.29 9.0418
2 3.67216 11.3174 9.48108
1 3.71744 13.2392 9.88132
1 3.67108 11.3365 11.4543
2 3.69086 13.2499 11.8687
1 5.63135 13.2713 12.2802
1 3.69823 13.3007 13.8425
2 5.62644 13.2868 14.2412
1 5.63972 11.3307 14.6356
1 5.47395 13.2177 16.1481
2 5.60542 11.3363 16.6509
1 3.7017 11.2978 17.0638
1 5.60718 11.3188 18.6256
2 3.5317 11.3206 19.0493
1 3.69347 13.2306 19.5968
1 3.50316 11.2718 21.0299
2 3.74435 13.2245 21.5361
1 5.47495 13.9076 22.0768
1 3.62636 13.2252 23.5504
2 5.58349 13.2221 23.8491
1 5.5526 11.3184 24.3828
1 5.6034 13.249 25.9013
2 5.59392 11.3371 26.3119
1 3.49794 11.3414 26.9174
1 5.70158 11.3663 28.2484
2 3.62944 15.1375 28.657
1 3.66545 17.0613 0.281187
1 3.71522 15.114 1.80676
2 3.69159 17.0609 2.37583
1 5.61879 17.0566 2.63546
1 3.70202 17.8121 4.23617
2 5.52024 17.0497 4.62395
1 5.80775 15.0892 5.12132
1 5.59838 17.0972 6.62179
2 5.63711 15.2006 7.07257
1 3.7389 15.1846 7.43942
1 5.65878 15.225 9.07033
2 3.75825 15.1532 9.45702
1 3.73982 17.0667 9.87729
1 3.7317 15.1609 11.4592
2 3.69769 17.0623 11.8346
1 5.7388 17.0609 12.5058
1 3.5129 17.0797 13.7514
2 5.25066 17.0779 14.3401
1 5.73198 15.2344 14.6503
1 5.44067 17.1245 16.1903
2 5.70371 15.1699 16.7576
1 3.6091 15.2074 17.0606
1 5.53167 15.9442 18.5852
2 3.78292 15.1773 19.061
1 3.57334 17.1179 19.5225
1 3.58668 15.2157 21.0346
2 3.69299 17.0978 21.4957
1 5.5755 17.173 21.926
1 3.70535 17.0557 23.517
2 5.62902 17.0847 23.8934
1 5.66206 15.189 24.3808
1 5.63711 17.0618 25.9167
2 5.59398 15.1553 26.3022
1 3.65312 15.1657 26.6467
1 5.49617 15.1211 28.2313
2 3.67684 18.9709 28.6609
1 3.68169 20.8898 0.254325
1 3.6839 18.9976 1.81313
2 3.68601 20.8891 2.27875
1 5.59293 20.8946 2.68541
1 3.70312 20.8631 4.29472
2 5.63658 20.8937 4.67054
1 5.74431 19.0138 5.11241
1 5.64721 20.8393 6.71443
2 5.3005 18.9582 6.94676
1 3.54051 18.9773 7.46696
1 5.64456 18.8655 8.81323
2 3.65603 18.9515 9.42814
1 3.73608 20.8475 9.85722
1 3.75976 18.9588 11.4346
2 3.7112 20.8675 11.8658
1 5.65442 20.8168 12.2272
1 3.69782 20.8553 13.8525
2 5.62635 20.8711 14.2438
1 5.66677 18.9456 14.6386
1 5.56565 20.8738 16.2328
2 5.59354 18.9816 16.6735
1 3.66019 18.9601 17.0709
1 5.60347 19.0166 18.6606
2 3.71475 18.9944 19.0773
1 3.73053 20.9093 19.486
1 3.57301 18.9906 21.0394
2 3.80745 20.9263 21.5032
1 5.61336 21.6998 21.9712
1 3.67258 20.8915 23.4952
2 5.61467 20.8935 23.7923
1 5.59934 18.9671 24.3509
1 5.59665 20.8824 25.8891
2 5.60116 18.9814 26.2888
1 3.67599 18.971 26.6779
1 5.58636 18.9591 28.2579
2 3.6816 22.8092 28.6599
1 3.69037 24.7117 0.279795
1 3.68845 22.7779 1.80996
2 3.69159 24.7265 2.34786
1 5.61731 24.6942 2.65955
1 3.69626 25.5019 4.16951
2 5.47608 24.7177 4.65227
1 5.71661 22.7617 5.13964
1 5.55636 24.7072 6.65838
2 5.63346 22.7893 7.08643
1 3.70875 22.7919 7.49305
1 5.62904 22.7944 9.06201
2 3.71625 22.7903 9.47046
1 3.64542 24.7132 9.89111
1 3.80649 22.7532 11.4215
2 3.56941 24.717 11.8926
1 5.58478 24.7131 12.2801
1 3.71596 24.7239 13.8833
2 5.62588 24.7272 14.2681
1 5.63743 22.8002 14.6673
1 5.5707 24.7067 16.2611
2 5.59083 22.791 16.6668
1 3.6824 22.8024 17.0879
1 5.59016 22.8145 18.6739
2 3.67062 22.8048 19.0556
1 3.67174 24.7161 19.4603
1 3.58905 22.8693 21.0165
2 3.40154 24.7261 21.3751
1 3.9052 24.6883 23.2225
2 5.60975 24.6989 24.0834
1 5.62287 22.8195 24.3909
1 5.6013 24.7239 25.9724
2 5.60671 22.7824 26.321
1 3.68494 22.7966 26.6832
1 5.60394 22.7917 28.2665
2 7.50844 26.6054 -0.0918051
1 7.39168 1.98208 0.605797
1 7.50066 26.5315 1.84954
2 7.46628 1.50392 2.40673
1 9.40382 1.8378 2.63925
1 7.62335 1.80638 4.25095
2 9.48596 1.78975 4.67585
1 9.42955 26.6233 5.0786
1 9.49117 1.76589 6.65827
2 9.43253 26.6235 7.07412
1 7.52466 -0.130631 7.48269
1 9.43339 26.6128 9.07486
2 7.52103 26.629 9.47008
1 7.51092 1.76773 9.88604
1 7.5343 26.6237 11.4519
2 7.51223 1.76618 11.8541
1 9.418 1.78344 12.3006
1 7.52434 1.70395 13.7951
2 9.42225 1.98027 14.2756
1 10.1783 1.63222 16.0417
2 9.41842 -0.136478 16.8233
1 7.4295 -0.125874 17.2264
1 9.41564 26.6224 18.7436
2 7.47112 -0.133165 19.1227
1 7.50306 1.77117 19.5024
1 7.43561 26.5903 21.0759
2 7.4911 1.76391 21.4668
1 9.42039 1.75178 21.8655
1 7.52296 1.77336 23.4004
2 9.42023 1.76844 23.8582
1 9.37964 26.6191 24.2686
1 9.44543 1.75156 25.8031
2 9.43003 -0.135155 26.287
1 7.55715 26.5468 26.7628
1 9.42102 -0.113715 28.3121
2 7.6333 3.69206 28.4665
1 7.41813 5.41675 0.552165
2 7.42232 5.87609 2.39399
1 9.23744 5.49882 2.71742
1 7.41779 5.68595 4.33006
2 9.39743 5.59145 4.67142
1 9.45207 3.71064 5.08604
1 9.36319 5.59675 6.65749
2 9.43053 3.67647 7.06943
1 9.41046 3.70229 9.04082
2 7.50349 3.68152 9.45922
1 7.45425 5.63025 9.86597
1 7.52983 3.69213 11.4469
2 7.50247 5.58746 11.8772
1 9.41356 5.65558 12.2849
1 7.5183 5.65139 13.8681
2 9.41593 5.66991 14.2987
1 9.41796 3.77704 14.6418
1 9.42813 5.48855 16.2726
2 9.4256 3.48917 16.6161
1 7.4917 3.73132 17.1045
1 9.4259 3.59709 18.6308
2 7.51497 3.68261 19.0689
1 7.53405 5.58643 19.4619
1 7.51113 3.68806 21.0514
2 7.49579 5.59061 21.4622
1 9.41602 5.5784 21.8619
1 7.51105 5.62876 23.4427
2 9.41436 5.60412 23.8567
1 9.4319 3.68337 24.2555
1 9.46365 5.60921 25.8068
2 9.45221 3.69773 26.3306
1 7.53914 3.83808 26.5896
1 9.44661 4.43174 28.2313
2 7.50405 7.51714 -0.112838
1 7.55392 9.45441 0.246322
1 7.49587 7.61831 1.83051
2 7.52838 9.48036 2.25014
1 9.41612 9.43027 2.70342
1 7.46776 9.34726 4.2625
2 9.42137 9.42309 4.6832
1 9.44594 7.4883 5.08394
1 9.38429 9.39656 6.6655
2 9.43115 7.48959 7.07451
1 7.31091 7.50773 7.74034
1 9.53208 7.51562 9.01842
2 7.792 7.49735 9.58127
1 7.4089 9.35178 9.87673
1 7.51279 7.49341 11.4654
2 7.47607 9.4003 11.853
1 9.41959 9.40095 12.1835
1 7.51732 9.39673 13.8161
2 9.41419 9.36654 14.075
1 9.42299 7.65518 14.9052
2 9.42922 7.25057 16.7824
1 7.55966 7.56843 17.0737
1 9.4277 7.49017 18.6773
2 7.49906 7.50663 19.0678
1 7.56838 9.40372 19.4616
1 7.37703 7.47343 21.0172
2 7.63973 9.40271 21.496
1 9.46145 10.1492 21.947
1 7.49099 9.42857 23.4891
2 9.42702 9.4146 23.7839
1 9.41478 7.51173 24.3302
1 9.42535 9.40633 25.8967
2 9.42261 7.4987 26.2914
1 7.51595 7.46067 26.7074
1 9.41587 7.48378 28.3023
2 7.57405 11.3548 28.6317
1 7.60562 13.3075 0.202145
1 7.52107 11.367 1.82239
2 7.53112 13.2511 2.09265
1 9.24926 13.2545 2.93052
2 9.70314 13.2416 4.78927
1 9.35383 11.3632 5.09587
1 9.37369 13.2588 6.6727
2 9.38459 11.3263 7.08746
1 7.47611 11.2935 7.47771
1 9.38114 11.2758 9.07778
2 7.48293 11.2456 9.48359
1 7.50256 13.1108 9.90445
1 7.51466 11.2969 11.5053
2 7.51628 13.2563 11.8447
1 9.40821 13.2189 12.285
1 7.58454 13.293 13.8536
2 9.44192 12.8641 14.1797
1 9.40708 11.0968 14.9003
1 9.58723 13.4903 15.9736
2 9.43212 11.7308 16.7161
1 7.564 11.3296 17.0548
1 9.44945 11.3976 18.6132
2 7.52418 11.3135 19.0521
1 7.58012 13.1866 19.5393
1 7.49454 11.2883 20.9788
2 7.36152 13.4011 21.474
1 9.48046 13.0944 21.9029
1 7.52107 13.2482 23.4641
2 9.42619 13.1627 23.8466
1 9.43558 11.3191 24.3568
1 9.42711 13.2611 25.8675
2 9.44929 11.3291 26.2852
1 7.53688 11.3238 26.6496
1 9.44753 11.3322 28.2518
2 7.2607 15.1788 -0.0684473
1 7.55946 17.0285 0.275442
1 7.51541 15.1466 1.82768
2 7.51964 17.0657 2.26866
1 9.41935 17.0482 2.66078
1 7.49407 17.0521 4.2365
2 9.3778 17.0307 4.63147
1 9.4061 15.134 5.09848
1 9.34603 17.1844 6.67494
2 9.40104 15.2132 7.06454
1 7.51396 15.1605 7.48646
1 9.35447 15.2214 9.05257
2 7.50734 14.8565 9.36538
1 7.50954 15.3056 11.2168
2 7.50744 17.0152 11.9412
1 9.24985 17.0039 12.5835
2 9.79508 17.4172 14.2801
1 9.58905 16.8282 15.9834
2 9.29054 15.1743 16.8455
1 7.52248 15.8979 17.0398
1 9.33496 15.1585 18.7
2 7.3446 15.1752 18.95
1 7.64363 17.1677 19.4783
1 8.37682 15.1657 21.2699
2 7.55148 17.0007 21.4315
1 9.49151 17.2386 21.9174
1 7.55471 17.0842 23.4563
2 9.43479 16.8522 23.7557
1 9.43879 15.0639 24.1975
1 9.46534 17.2729 25.6136
2 9.41954 15.2063 26.0477
1 7.73462 15.2305 26.8867
2 7.45193 18.9617 -0.101221
1 7.48505 20.8853 0.277933
1 7.48818 18.9732 1.8627
2 7.50963 20.8819 2.2609
1 9.43704 20.9018 2.6412
1 7.52565 20.9086 4.22838
2 9.40372 20.9093 4.61507
1 9.44414 18.9736 4.88292
1 9.31983 20.7759 6.65617
2 9.83084 18.9865 6.65681
2 7.0669 19.3216 9.73505
1 7.62459 20.9811 9.89781
1 7.57513 18.7726 11.3412
2 7.5831 20.9272 11.8731
1 9.48096 20.9173 12.2042
1 7.53053 20.8983 13.7968
2 9.50902 20.9019 14.2866
1 9.1702 19.0346 14.7473
1 9.47036 20.8983 16.3302
2 9.40102 18.9902 16.6704
1 7.51079 18.9771 17.0816
1 9.45169 18.9765 18.6164
2 7.54113 19.0212 19.0604
1 7.48078 20.9046 19.5047
1 7.6176 18.9745 21.0379
2 7.38804 20.9036 21.5007
1 9.4105 20.9216 21.8824
1 7.56904 20.8245 23.4925
2 9.42005 21.1505 23.7828
1 9.48407 20.6593 25.6342
2 9.47133 18.9687 26.4828
1 7.52395 18.9834 26.6917
1 9.329 18.9811 28.3383
2 7.51882 22.7867 28.6623
1 7.52277 24.6801 0.265751
1 7.52211 22.7837 1.85599
2 7.51453 24.66 2.27768
1 9.42412 24.6915 2.70095
1 7.50181 24.7136 4.26388
2 9.41945 24.7049 4.69175
1 9.40344 22.786 5.08301
1 9.43445 24.6986 6.68601
2 9.39902 22.7346 7.03099
1 7.5433 22.82 7.51794
1 9.55818 22.7438 9.05874
2 7.57966 22.8389 9.478
1 7.54828 24.7162 9.87372
1 7.5131 22.8315 11.4814
2 7.52131 24.7261 11.8504
1 9.47645 24.646 12.295
1 7.53469 24.814 13.7773
2 9.40713 24.4973 14.296
1 9.28023 22.7266 14.7505
1 10.1713 24.8512 16.0619
2 9.40887 22.9821 16.6555
1 7.48755 22.7372 17.1119
1 9.42399 22.8933 18.6332
2 7.51536 22.7971 19.0656
1 7.48756 24.7225 19.4816
1 7.61978 22.8664 21.0249
2 7.78516 24.7295 21.3717
1 9.53309 24.7539 21.919
1 7.31422 24.6919 23.2186
2 9.42172 24.7609 23.8618
1 9.37559 22.9106 24.3094
1 9.41998 24.739 25.8729
2 9.42852 22.8059 26.2575
1 7.53839 22.7567 26.675
1 9.4374 22.7487 28.2405
2 11.342 26.6299 -0.104331
1 11.454 1.74718 0.335074
1 11.3138 26.6277 1.88842
2 11.3426 1.79595 2.27762
1 13.2388 1.80835 2.72749
1 11.348 1.79379 4.26069
2 13.2313 1.76971 4.71332
1 13.2487 26.5919 5.056
1 13.229 1.64583 6.66869
2 13.1966 26.5511 7.06647
1 11.3321 26.5649 7.5348
1 13.275 26.5424 9.10766
2 11.346 -0.121123 9.50745
1 11.3534 1.80933 9.82553
1 11.323 -0.00775646 11.4529
2 11.342 1.83469 11.8523
1 13.2768 1.75293 12.2639
1 11.3272 1.72379 13.7907
2 13.2313 1.76314 14.2727
1 13.2244 -0.136204 14.6954
1 13.2922 1.78158 16.2751
2 13.2503 -0.134632 16.6895
1 11.4 -0.134183 17.2292
1 13.2774 26.6185 18.7081
2 11.3586 26.6298 19.1311
1 11.3545 1.78368 19.4784
1 11.3523 -0.140606 21.0713
2 11.3254 1.77583 21.4592
1 13.2245 1.76216 21.8134
1 11.3439 1.76908 23.4353
2 13.351 1.76851 23.8246
1 13.1144 26.5984 24.3216
1 13.3131 1.77205 25.842
2 13.2282 26.6262 26.2773
1 11.3278 -0.138587 26.7116
1 13.2567 26.6246 28.2688
2 11.2237 3.6738 28.6423
1 11.471 5.63392 0.330985
1 11.3271 3.72296 1.85601
2 11.0017 5.58782 2.16256
1 11.4877 5.57899 3.99311
2 13.2233 5.54135 4.67805
1 13.2329 3.81475 5.33708
2 13.2422 3.40651 7.1922
1 11.3731 3.75956 7.47387
1 13.243 3.69238 9.07119
2 11.3218 3.71412 9.46895
1 11.3213 5.58954 9.9065
1 11.319 3.69816 11.4669
2 11.3271 5.60399 11.882
1 13.2324 5.58693 12.2897
1 11.3128 5.64306 13.8649
2 13.2289 5.59005 14.2723
1 13.2111 3.67473 14.6721
1 13.243 5.59752 16.2597
2 13.247 3.69817 16.6582
1 11.3611 3.72556 17.1106
1 13.294 3.73731 18.6571
2 11.349 3.69577 19.0683
1 11.3125 5.59229 19.4663
1 11.3219 3.68868 21.0531
2 11.3386 5.59279 21.4635
1 13.2416 5.55558 21.9076
1 11.3126 5.63103 23.4425
2 13.2106 5.6114 23.8912
1 13.1271 3.71792 24.3113
1 13.2352 5.60682 25.8679
2 13.2162 3.69038 26.2762
1 11.3533 3.67561 26.6637
1 13.1926 3.67273 28.2896
2 11.3593 7.5162 -0.125368
1 11.3258 9.41507 0.299263
1 11.3282 7.46923 1.88888
2 11.3176 9.42135 2.26538
1 13.188 9.36066 2.68354
1 11.3439 9.45311 4.21784
2 13.3622 9.10875 4.74836
1 13.194 7.24922 5.37536
1 13.9931 9.58401 6.57358
2 13.2266 7.95341 7.13829
1 11.3674 7.38524 7.4471
1 13.2211 7.4366 8.9847
2 11.3797 7.47613 9.47348
1 11.3582 9.42554 9.8411
1 11.3553 7.51554 11.4554
2 11.3621 9.42277 11.8281
1 13.2429 9.42457 12.3279
1 11.3106 9.4134 13.8248
2 13.2397 9.39085 14.2758
1 13.2016 7.49376 14.6922
1 13.2517 9.41087 16.2664
2 13.2237 7.49949 16.6615
1 11.2981 7.56971 17.0934
1 13.2871 7.44538 18.638
2 11.3683 7.51 19.0739
1 11.3026 9.41862 19.4788
1 11.4709 7.47745 21.0198
2 11.2326 9.41116 21.4864
1 13.2641 9.39589 21.8799
1 11.358 9.42421 23.4657
2 13.2441 9.41721 23.8646
1 13.217 7.5088 24.2758
1 13.1194 9.37666 25.8249
2 13.2451 7.49844 26.2625
1 11.3215 7.48524 26.7043
1 13.2588 7.51658 28.2263
2 11.3343 11.3543 -0.115332
1 11.2295 13.3052 0.30857
1 11.2961 11.3578 1.85759
2 11.301 13.2351 2.29725
1 13.2599 13.2756 2.65601
1 11.4688 13.1611 4.25062
2 13.3088 13.5001 4.56755
1 13.2555 13.0119 6.40571
2 13.248 11.2614 7.2212
1 11.2691 11.4811 7.55188
1 13.1959 11.4402 9.10126
2 11.2893 11.364 9.50784
1 11.2639 13.2593 9.90263
1 11.3117 11.3343 11.4816
2 11.3291 13.25 11.8699
1 13.2379 13.2356 12.2757
1 11.2992 13.2126 13.8436
2 13.2322 13.2119 14.2369
1 13.2565 11.3061 14.669
1 13.2242 13.2385 16.2142
2 13.232 11.3273 16.6476
1 11.2908 11.3169 17.049
1 13.2367 11.3474 18.6134
2 11.3569 11.3384 19.0579
1 11.3833 13.2952 19.4661
1 11.4864 11.3559 20.9993
2 11.3572 13.2346 21.4673
1 13.2444 13.2826 21.8731
1 11.346 13.2178 23.4555
2 13.2297 13.2457 23.8705
1 13.2761 11.3268 24.3018
1 13.0678 13.3277 25.8276
2 13.3352 11.3355 26.2959
1 11.3578 11.3341 26.7004
1 13.2227 11.3536 28.2967
2 11.5727 15.1734 -0.015978
1 11.3309 17.065 0.308238
1 11.3019 15.1451 1.89033
2 11.3235 17.0665 2.31622
1 13.2267 17.0593 2.69423
1 11.3088 17.0736 4.30661
2 13.2354 17.1202 4.69013
1 13.2469 15.2555 5.13472
1 13.1928 17.1238 6.73262
2 13.2254 15.1644 7.06932
1 11.3134 15.1275 7.45918
1 13.2206 15.1399 9.04072
2 11.2841 15.1079 9.45461
1 11.221 16.947 9.90126
1 11.3118 15.1392 11.4982
2 11.3084 17.0179 11.8519
1 13.253 17.1361 12.1845
1 11.4752 17.0585 13.7777
2 13.3179 17.0647 14.2236
1 13.2617 15.1371 14.5937
1 13.2482 17.0445 16.2185
2 13.2376 15.1429 16.4748
1 11.5767 15.1574 17.3806
2 11.089 15.1694 19.2127
1 11.4017 17.0359 19.4903
1 11.3438 15.1668 21.0981
2 11.3661 17.1019 21.4815
1 13.2474 17.0495 21.8915
1 11.3189 17.1281 23.4916
2 13.2546 17.084 23.846
1 13.2257 15.1845 24.2692
1 13.2176 17.0774 25.8351
2 13.2501 15.1916 26.2683
1 11.0707 15.2348 26.9362
1 13.3128 15.1803 28.2092
2 11.1002 18.9612 0.0105365
1 11.4084 20.841 0.286941
1 11.3602 18.9724 1.88495
2 11.352 20.8892 2.29241
1 13.2482 20.8892 2.70649
1 11.3261 20.8871 4.29246
2 13.2616 20.8986 4.67432
1 13.2248 18.9992 5.11246
1 13.2534 20.8937 6.67076
2 13.3046 19.0218 7.09543
1 11.2893 19.0341 7.72871
1 13.3908 19.0105 9.0496
2 11.6881 18.6342 9.47901
1 11.2597 19.0069 11.2305
2 11.3368 20.5389 12.2439
1 13.1887 20.9461 12.1833
1 11.3378 21.6461 13.7362
2 13.1278 20.9186 14.2712
1 13.3949 18.9553 14.6858
1 13.229 20.885 16.2608
2 13.2526 18.967 16.6525
1 11.3213 18.923 17.0365
1 13.237 18.9869 18.6372
2 11.3443 18.9655 19.0529
1 11.3254 20.8891 19.4779
1 11.3696 18.9905 21.0358
2 11.3271 20.8806 21.4616
1 13.232 20.911 21.8964
1 11.2795 20.8362 23.4582
2 13.2297 20.8963 23.851
1 13.2236 18.9911 24.2156
1 13.2383 20.8741 25.833
2 13.2453 18.9782 26.0966
1 11.5075 18.9728 26.9443
2 11.3443 22.7824 28.6689
1 11.3316 24.7119 0.290453
1 11.3388 22.7925 1.85378
2 11.3336 24.7099 2.28014
1 13.2524 24.7084 2.693
1 11.3341 24.7066 4.26696
2 13.2558 24.6954 4.67017
1 13.2742 22.7965 5.05346
1 13.2047 24.6796 6.67209
2 13.2621 22.783 7.01302
1 11.3269 22.7784 7.30711
1 13.1793 22.7738 9.05412
2 11.3622 23.2021 9.08165
1 11.3427 24.7054 10.0868
2 11.3471 25.002 11.9624
1 13.2154 24.6707 12.3263
1 11.3044 24.8244 13.8335
2 13.2119 24.727 14.3295
1 13.331 22.8417 14.7325
1 13.26 24.7246 16.3022
2 13.2662 22.7989 16.6901
1 11.3525 22.7537 17.1002
1 13.2517 22.8012 18.6737
2 11.3327 22.7939 19.0723
1 11.3501 24.7062 19.5
1 11.3369 22.7917 21.0698
2 11.3905 24.7118 21.4801
1 13.2624 24.714 21.8941
1 11.3562 24.6914 23.4921
2 13.2521 24.7079 23.8864
1 13.2402 22.7913 24.2733
1 13.2568 24.6953 25.8754
2 13.245 22.7827 26.2639
1 11.3202 22.7676 26.665
1 13.2436 22.8099 28.2433
2 15.1625 -0.135665 -0.1163
1 15.2095 1.79879 0.28669
1 15.1356 -0.139339 1.88079
2 15.0948 1.79964 2.28081
1 16.9419 1.90668 2.72294
1 15.1181 1.79585 4.32849
2 17.0893 1.84708 4.6523
1 17.1114 -0.0206868 5.06535
1 17.1176 1.75692 6.67449
2 16.8118 26.6161 6.9218
1 15.0689 26.5683 7.49355
1 17.193 -0.0863919 8.77775
2 15.2025 0.114238 9.35143
1 15.1649 1.86382 9.89525
1 15.199 26.4017 11.1869
2 15.1617 1.78345 11.8509
1 17.0545 1.74353 12.2749
1 15.1519 1.73447 13.8367
2 17.0618 1.76822 14.2731
1 17.0773 -0.133654 14.6952
1 17.0456 1.7781 16.2727
2 17.0241 26.632 16.677
1 15.1514 26.6311 17.0968
1 17.0628 26.6148 18.6877
2 15.1676 26.5749 19.0858
1 15.1693 1.67872 19.5328
1 15.1734 26.5651 21.0457
2 15.1515 1.69552 21.518
1 17.0695 1.83883 21.8426
1 15.1089 2.48668 23.2485
2 16.9335 1.79904 23.8452
1 17.2108 26.5702 24.3003
1 16.9735 1.6512 25.806
2 17.0856 26.5784 26.2801
1 15.1398 26.6059 26.6794
1 17.0487 -0.136648 28.2344
2 15.0952 3.68509 -0.113103
1 15.2264 5.56507 0.256426
1 15.0463 3.73319 1.84014
2 15.4486 5.57095 2.16506
1 17.1808 5.42189 2.74522
1 14.9623 5.56431 4.00681
2 17.0943 5.56669 4.66665
1 17.0715 3.68823 5.11106
1 17.0443 5.57609 6.63698
2 17.0584 3.67946 7.0904
1 15.1179 3.71795 7.48254
1 17.0694 3.6972 9.06119
2 15.1618 3.74542 9.48554
1 15.1466 5.61407 9.89748
1 15.1593 3.70698 11.4907
2 15.1406 5.6024 11.8796
1 17.0492 5.59614 12.2518
1 15.1412 5.59605 13.867
2 17.0239 5.5863 14.2664
1 17.0505 3.67486 14.6761
1 17.0676 5.585 16.263
2 17.0772 3.68823 16.6558
1 15.1601 3.68331 17.0698
1 17.0426 3.72535 18.6419
2 15.1673 3.42077 18.9564
1 15.1482 3.97633 20.7406
2 15.1402 5.62126 21.6268
1 17.0571 5.56444 21.8507
1 15.1176 5.76844 23.4766
2 17.1349 5.54151 23.7475
1 17.9881 3.96451 24.9051
2 16.815 3.41188 26.2391
1 15.0737 3.7104 26.7808
1 17.332 3.72843 27.9893
2 15.1403 7.48568 -0.125817
1 15.0564 9.34556 0.39871
1 15.0554 7.38876 1.84534
2 15.1066 9.44734 2.37389
1 17.04 9.54571 2.73463
1 14.898 10.2348 4.23199
2 16.9254 9.43924 4.67951
1 17.1461 7.46384 5.09672
1 17.0304 9.41665 6.6774
2 17.0645 7.48079 7.05354
1 15.1344 7.42175 7.48388
1 17.1003 7.38036 9.00414
2 15.1628 7.59147 9.48679
1 15.9302 9.4141 9.92535
1 15.1531 7.48581 11.4757
2 15.1598 9.40115 11.7674
1 17.095 9.40899 12.3403
2 17.0772 9.39193 14.2852
1 17.1014 7.49048 14.6985
1 17.0618 9.40996 16.2772
2 17.0762 7.489 16.6675
1 15.1569 7.51172 17.068
1 17.024 7.44859 18.6551
2 15.1545 7.77152 18.9628
1 15.1498 9.52849 19.4966
1 15.1477 7.33473 20.8176
2 15.1522 9.4166 21.4468
1 17.0487 9.3588 21.8737
1 15.1724 9.35018 23.4419
2 17.0804 9.44021 23.8366
1 17.0932 7.27987 24.5229
1 17.2005 9.49723 25.7281
2 17.0736 7.77787 26.3596
1 15.1934 7.45833 26.6574
1 17.0449 7.50039 28.2324
2 15.2649 11.3303 28.5548
1 15.0542 13.3261 0.345288
1 15.1814 11.3601 1.7833
2 15.1731 13.2438 2.26695
1 17.0875 13.2497 2.70012
1 15.1551 13.2361 4.24985
2 17.0933 13.2297 4.67303
1 17.1427 11.3412 5.13316
1 17.0875 13.2542 6.6558
2 17.0979 11.3551 7.09744
1 15.2016 11.4502 7.60045
1 17.1352 11.451 9.05628
2 15.177 11.2352 9.5445
1 15.1585 13.2389 9.91818
1 15.1696 11.3369 11.5106
2 15.1573 13.2439 11.8862
1 17.076 13.2523 12.2892
1 15.1567 13.2388 13.8646
2 17.0689 13.2366 14.2721
1 17.0557 11.3153 14.6856
1 17.0395 13.2544 16.2645
2 17.0626 11.3334 16.6676
1 15.1538 11.3368 17.0716
1 17.0619 11.3747 18.6552
2 15.1415 11.4052 19.0638
1 15.0902 13.304 19.486
1 15.1674 11.3582 21.0675
2 15.1469 13.2474 21.4788
1 17.0661 13.304 21.8629
1 15.1103 13.1166 23.4188
2 17.0887 13.3208 23.8707
1 17.0195 11.364 24.2039
1 17.1772 13.2292 25.8182
2 16.9589 11.3609 26.3984
1 15.0989 12.083 26.6885
1 17.1044 12.0801 28.2694
2 15.1764 15.2008 -0.123599
1 15.0825 17.1294 0.306066
1 15.1752 15.1884 1.88846
2 15.1418 17.0795 2.29876
1 17.0587 17.0882 2.6927
1 15.1462 17.0754 4.27368
2 17.0663 17.0202 4.67883
1 17.0716 15.1394 5.07383
1 17.0679 17.0362 6.69434
2 17.0516 15.1406 7.07174
1 15.1235 15.1223 7.47133
1 17.0593 15.1559 9.05093
2 15.1447 15.1407 9.46796
1 15.1623 17.0531 9.88016
1 15.1485 15.152 11.4633
2 15.1712 17.056 11.8667
1 17.082 17.0713 12.2754
1 15.178 17.0297 13.8371
2 17.0686 17.063 14.2748
1 17.0425 15.1499 14.7074
1 17.0274 17.0505 16.2712
2 17.0756 15.152 16.6825
1 14.9534 15.1482 17.3109
1 17.1694 15.1572 18.6242
2 15.4154 15.1645 19.1712
1 15.087 17.0251 19.4725
1 15.1658 15.1705 21.079
2 15.1346 17.0956 21.4671
1 17.0411 17.0308 21.8454
1 15.1839 17.2618 23.4385
2 17.042 16.7453 23.7927
1 17.8386 15.119 24.3088
1 17.0001 17.3249 25.647
2 17.0842 15.1559 26.1388