1778
Atoms. Timestep: 155
2 -0.173797 -0.174927 0.142922
1 -0.172935 1.74287 0.534351
1 -0.173604 -0.173607 2.10432
2 -0.173726 1.74376 2.49704
1 1.7439 1.74299 2.88906
1 -0.173661 1.74293 4.45913
2 1.74328 1.74675 4.85205
1 1.74361 -0.173282 5.24446
1 1.74348 1.73983 6.81374
2 1.74381 -0.173691 7.20714
1 -0.173491 -0.173981 7.5993
1 1.74342 -0.173702 9.16887
2 -0.173697 -0.173537 9.56158
1 -0.173759 1.74331 9.95452
1 -0.17365 -0.173656 11.5238
2 -0.173714 1.7432 11.9171
1 1.74334 1.74356 12.3089
1 -0.173732 1.74509 13.8804
2 1.74548 1.74346 14.2713
1 1.7466 -0.17381 14.6657
1 1.74479 1.74295 16.2363
2 1.7198 -0.173706 16.6287
1 -0.177932 -0.170845 17.0165
1 1.74658 -0.169661 18.6351
2 -0.195342 -0.195653 18.9535
1 -0.169404 1.67992 19.3857
1 -0.0655514 -0.165534 20.9483
2 -0.208821 1.77979 21.3281
1 1.73938 1.648 21.7108
1 -0.170118 1.74124 23.2925
2 1.74296 1.76532 23.7131
1 1.75211 -0.176947 24.0338
1 1.74112 1.74706 25.6557
2 1.70951 -0.140776 26.035
1 -0.176891 -0.170366 26.4397
1 1.74338 -0.179345 28.0016
2 -0.173925 3.6596 0.141818
1 -0.173323 5.5737 0.534868
1 -0.173551 3.66081 2.1037
2 -0.174315 5.57888 2.49706
1 1.74007 5.57991 2.89164
1 -0.170689 5.58205 4.46161
2 1.74386 5.5795 4.85794
1 1.74377 3.66671 5.25248
1 1.74344 5.51718 6.80546
2 1.74336 3.63825 7.21316
1 -0.17141 3.66664 7.59792
1 1.74341 3.66326 9.16872
2 -0.174052 3.65974 9.56167
1 -0.169014 5.58011 9.95195
1 -0.173743 3.66029 11.5238
2 -0.175972 5.57716 11.9171
1 1.74357 5.57909 12.3073
1 -0.173772 5.57511 13.8806
2 1.74529 5.57702 14.2715
1 1.73713 3.66036 14.6655
1 1.74032 5.57446 16.2382
2 1.74178 3.65726 16.6323
1 -0.17368 3.66052 16.9383
1 1.80189 3.66299 18.5805
1 -0.172329 5.63796 19.3821
1 -0.171712 3.66482 21.0243
2 -0.194221 5.57639 21.3228
1 1.68041 5.57572 21.7363
1 -0.164182 5.56848 23.2876
2 1.7461 5.5803 23.6833
1 1.74636 3.66632 24.0815
1 1.75003 5.57821 25.6517
2 1.7415 3.66195 26.0463
1 -0.174173 3.66003 26.4383
1 1.74376 3.66077 28.0084
2 -0.173117 7.47143 0.137607
1 -0.168534 9.35397 0.544576
1 -0.175691 7.49959 2.09707
2 -0.210427 9.39767 2.49002
1 1.73366 9.51571 2.87642
1 -0.167941 9.41728 4.45758
2 1.74336 9.38398 4.87861
1 1.74359 7.49185 5.16639
1 1.74346 9.47196 6.80734
1 -0.233912 7.49474 7.60743
1 1.74342 7.49477 9.24954
2 -0.171707 7.49345 9.55379
1 -0.169009 9.40814 9.94897
1 -0.16768 7.49141 11.5197
2 -0.176077 9.38703 11.8956
1 1.74021 9.41762 12.3115
1 -0.17381 9.51721 13.8939
2 1.77799 9.37731 14.2704
1 1.74625 7.49106 14.6649
1 1.73573 9.41531 16.2284
2 1.74275 7.49841 16.6269
1 -0.173822 7.49173 17.0192
1 1.74409 7.48289 18.5924
2 -0.174812 7.51749 18.9745
1 -0.173906 9.41568 19.3745
1 -0.167127 7.48654 20.936
2 -0.174349 9.40769 21.3362
1 1.74571 9.40587 21.7271
1 -0.169912 9.41646 23.2993
2 1.74636 9.4118 23.6911
1 1.74943 7.49197 24.0815
1 1.73836 9.41462 25.6541
2 1.7417 7.49527 26.0434
1 -0.170763 7.49796 26.4417
1 1.73345 7.49836 28.0059
1 -0.167962 13.3037 0.544794
1 -0.0813972 11.3289 2.21681
2 -0.209929 13.2613 2.49025
1 1.74195 13.1368 2.87014
1 -0.170279 13.236 4.45491
2 1.74339 13.2689 4.87178
1 1.74299 11.3219 5.19837
1 1.74345 13.25 6.8164
2 1.74334 11.3516 7.20282
1 -0.170961 11.3225 7.59987
1 1.74301 11.3258 9.16667
2 -0.174 11.3294 9.57272
1 -0.173751 13.2465 9.95159
1 -0.173799 11.3289 11.5783
2 -0.173586 13.2707 11.8962
1 1.7402 13.2383 12.3132
1 -0.173567 13.1403 13.8941
2 1.77799 13.2792 14.2699
1 1.63781 11.3286 14.6489
1 1.73599 13.2394 16.2267
2 1.76832 11.3284 16.6471
1 -0.1736 11.3287 16.9644
1 1.74405 11.3283 18.5913
2 -0.17307 11.3288 18.9699
1 -0.176301 13.2416 19.3751
1 -0.174214 11.328 20.9419
2 -0.172824 13.2463 21.3372
1 1.7436 13.2454 21.7286
1 -0.173852 13.244 23.3001
2 1.7457 13.2462 23.6906
1 1.73682 11.3288 24.088
1 1.73905 13.2426 25.6544
2 1.74266 11.3282 26.0778
1 -0.174869 11.3283 26.3573
1 1.82137 11.3295 28.0299
2 -0.173093 15.1865 0.13469
1 -0.173347 17.0834 0.535649
1 -0.176279 15.1578 2.09498
2 -0.173248 17.0763 2.49712
1 1.74344 17.0813 2.88963
1 -0.173296 17.0805 4.45961
2 1.74412 17.0803 4.85086
1 1.74369 15.1658 5.24758
1 1.7407 17.0763 6.81313
2 1.74387 15.164 7.20874
1 -0.173428 15.1629 7.5989
1 1.74338 15.1626 9.16927
2 -0.173593 15.1638 9.56012
1 -0.173358 17.0804 9.95381
1 -0.174035 15.1661 11.5213
2 -0.172862 17.0804 11.9163
1 1.74351 17.08 12.3104
1 -0.173364 17.0808 13.8782
2 1.74289 17.0806 14.2817
1 1.74611 15.166 14.662
1 1.74336 17.0797 16.288
2 1.7425 15.1373 16.6062
1 -0.170469 15.1704 17.0233
1 1.74333 15.2685 18.6034
2 -0.208272 15.1278 18.9808
1 -0.0676676 17.0796 19.3584
1 -0.166012 15.1659 20.9387
2 -0.198777 17.0789 21.356
1 1.7395 17.0796 21.6748
1 -0.176149 17.0861 23.3024
2 1.74697 17.0799 23.6795
1 1.74334 15.1634 24.084
1 1.74355 17.0798 25.6514
2 1.74381 15.1633 26.046
1 -0.173662 15.1594 26.4386
1 1.74105 15.1562 28.0093
2 -0.173512 18.9953 0.141528
1 -0.174394 20.9145 0.532319
1 -0.17341 18.9962 2.10444
2 -0.174817 20.9137 2.495
1 1.74313 20.9144 2.88629
1 -0.17684 20.914 4.45658
2 1.71851 20.9139 4.83144
1 1.75087 19.0001 5.24876
1 1.849 20.914 6.82923
2 1.7088 18.9623 7.2067
1 -0.17732 18.9942 7.60026
1 1.74661 19.0044 9.16463
2 -0.1729 18.9977 9.56251
1 -0.173924 20.914 9.95443
1 -0.172773 18.9969 11.5239
2 -0.172567 20.9136 11.9161
1 1.74392 20.9139 12.3094
1 -0.173697 20.9138 13.8788
2 1.74351 20.9151 14.2702
1 1.74333 18.9976 14.6611
1 1.74314 20.9171 16.2311
2 1.74343 19.0217 16.6055
1 -0.170395 18.9894 17.023
1 1.74371 18.8909 18.6026
2 -0.205909 19.0313 18.9813
1 -0.182223 20.9178 19.3761
1 -0.170679 18.9964 20.9413
2 -0.174506 20.9128 21.3429
1 1.73744 20.9135 21.7371
1 -0.112917 20.9143 23.2899
2 1.76635 20.9139 23.6963
1 1.73679 18.9989 24.0825
1 1.73845 20.9104 25.6522
2 1.74466 18.9956 26.0461
1 -0.17634 19.0019 26.4358
1 1.74363 18.9972 28.008
2 -0.173584 22.8345 0.142282
1 -0.174067 24.7484 0.535494
1 -0.173383 22.8311 2.10447
2 -0.173633 24.7482 2.49679
1 1.74094 24.748 2.89183
1 -0.173459 24.7477 4.45957
2 1.74316 24.7477 4.85277
1 1.75105 22.8279 5.24863
1 1.74075 24.7518 6.81332
2 1.70879 22.8656 7.20668
1 -0.177484 22.8337 7.60024
1 1.74663 22.8236 9.1646
2 -0.172993 22.8303 9.56196
1 -0.173219 24.7478 9.95382
1 -0.173946 22.8309 11.5238
2 -0.173807 24.7482 11.9163
1 1.74328 24.7478 12.3088
1 -0.173793 24.748 13.8784
2 1.74247 24.7476 14.2708
1 1.74313 22.8311 14.6639
1 1.75036 24.751 16.2348
2 1.74331 22.8312 16.6265
1 -0.173531 22.8308 17.0189
1 1.74367 22.8323 18.5878
2 -0.17017 22.8319 18.9806
1 -0.166025 24.7482 19.3783
1 -0.180901 22.8248 20.9447
2 -0.208739 24.7165 21.3342
1 1.74263 24.8548 21.7103
1 -0.175829 24.7494 23.2926
2 1.71831 24.7225 23.6908
1 1.74506 22.8288 24.0889
1 1.84262 24.7471 25.6693
2 1.71058 22.7973 26.047
1 -0.180063 22.8237 26.4367
1 1.7436 22.8368 28.0033
2 3.62782 -0.113717 0.159249
1 3.65809 1.75119 0.538203
1 3.66802 -0.178057 2.10113
2 3.66152 1.74286 2.49906
1 5.57744 1.74267 2.88951
1 3.66048 1.74296 4.45926
2 5.57747 1.74284 4.85125
1 5.57746 -0.174135 5.24498
1 5.57768 1.74329 6.81403
2 5.57706 -0.172953 7.20721
1 3.66039 -0.172723 7.59928
1 5.57751 -0.17368 9.16889
2 3.66043 -0.173492 9.56168
1 3.66054 1.74341 9.95428
1 3.66195 -0.173562 11.5258
2 3.66048 1.74561 11.9163
1 5.57752 1.73735 12.3136
1 3.66368 1.73835 13.8792
2 5.57738 1.74215 14.3044
1 5.57761 -0.174719 14.5835
1 5.57793 1.82546 16.2561
1 3.60232 -0.168244 17.0272
1 5.57227 -0.0817311 18.6927
2 3.66879 -0.210146 18.9541
1 3.75612 1.74878 19.3662
1 3.56396 -0.174938 20.9534
2 3.67094 1.75444 21.3639
1 5.576 1.75518 21.6741
1 3.65649 1.73842 23.2966
2 5.57716 1.74129 23.6791
1 5.57028 -0.177722 24.0876
1 5.58014 1.75095 25.6481
2 5.61002 -0.113825 26.0289
1 3.66309 -0.285531 26.428
1 5.57456 -0.285489 28.0188
2 3.66197 3.66127 0.139967
1 3.6664 5.57732 0.539467
1 3.65803 3.65645 2.10272
2 3.627 5.54135 2.49776
1 5.57771 5.67668 2.87613
1 3.66088 5.59014 4.45705
2 5.57832 5.55252 4.87208
1 5.57781 3.65718 5.24689
1 5.57142 5.57909 6.81832
2 5.57767 3.65928 7.20804
1 3.65828 3.66679 7.59769
1 5.57761 3.66022 9.16917
2 3.66088 3.65973 9.56143
1 3.65585 5.58025 9.95181
1 3.66026 3.66063 11.5233
2 3.66299 5.57706 11.9158
1 5.57787 5.57744 12.3095
1 3.66085 5.57845 13.8782
2 5.57752 5.57575 14.2711
1 5.57786 3.65916 14.6656
1 5.57656 5.58289 16.2326
2 5.57449 3.69043 16.6096
1 3.6593 3.65313 17.0322
1 5.57876 3.55296 18.6068
2 3.6482 3.69822 18.9939
1 3.65666 5.57955 19.2932
1 3.66471 3.60093 20.9311
1 5.63768 5.5772 21.7369
1 3.66079 5.57766 23.3788
2 5.5758 5.57627 23.6833
1 5.5728 3.66204 24.0809
1 5.57141 5.57513 25.6493
2 5.57943 3.66128 26.0466
1 3.66041 3.66266 26.4362
1 5.57767 3.66051 28.0078
2 3.59966 7.46138 0.124807
1 3.75972 9.4131 0.52564
1 3.7736 7.49353 2.11558
2 3.63629 9.41111 2.51612
1 5.58206 9.30428 2.81648
1 3.65892 9.4069 4.45485
2 5.57794 9.43705 4.86615
1 5.57394 7.49544 5.19013
1 5.5713 9.41006 6.81738
2 5.60017 7.4946 7.18989
1 3.72117 7.49473 7.6076
1 5.57155 7.49455 9.15896
2 3.65872 7.49446 9.55554
1 3.65575 9.40886 9.95179
1 3.65405 7.49491 11.5227
2 3.66226 9.41268 11.9155
1 5.5777 9.41201 12.3097
1 3.66444 9.4089 13.8778
2 5.57834 9.41193 14.2716
1 5.57707 7.49446 14.6641
1 5.57773 9.41201 16.233
2 5.5779 7.49742 16.6273
1 3.66027 7.48914 17.0199
1 5.57491 7.49124 18.5908
2 3.66128 7.4936 18.987
1 3.66053 9.40574 19.3818
1 3.66058 7.55491 20.9349
2 3.66049 9.43406 21.3419
1 5.57529 9.4054 21.7285
1 3.66126 9.40835 23.2968
2 5.57788 9.41243 23.7015
1 5.57275 7.49105 24.0789
1 5.57784 9.41136 25.7077
2 5.58008 7.47058 26.0303
1 3.66492 7.50044 26.4398
1 5.57701 7.6006 28.0834
2 3.66137 11.3637 0.124271
1 3.64454 13.2452 0.539228
1 3.55589 11.3296 2.11315
2 3.6972 13.2794 2.49734
1 5.58159 13.2493 2.89099
1 3.65729 13.2388 4.45483
2 5.57694 13.245 4.85198
1 5.57797 11.3313 5.24686
1 5.57766 13.2459 6.81403
2 5.57743 11.3298 7.20802
1 3.65784 11.3223 7.59822
1 5.5775 11.329 9.1692
2 3.66045 11.3295 9.56207
1 3.66058 13.2459 9.95441
1 3.66083 11.3289 11.5237
2 3.65987 13.2451 11.9161
1 5.5774 13.2457 12.309
1 3.66428 13.2486 13.878
2 5.5784 13.2452 14.2713
1 5.57837 11.3287 14.6639
1 5.57673 13.2457 16.2333
2 5.57777 11.3286 16.6258
1 3.66368 11.3291 17.0214
1 5.57758 11.3291 18.5883
2 3.6612 11.3245 18.9824
1 3.66272 13.2412 19.3744
1 3.66014 11.3325 20.9431
2 3.65965 13.247 21.3364
1 5.57936 13.2522 21.7265
1 3.66078 13.2457 23.2978
2 5.57697 13.2459 23.6895
1 5.57779 11.3294 24.081
1 5.57799 13.2489 25.6505
2 5.57582 11.3534 26.0252
1 3.66229 11.3208 26.4442
1 5.58346 11.2292 28.0175
2 3.66019 15.1631 0.14154
1 3.6608 17.0798 0.534662
1 3.66332 15.1665 2.10356
2 3.65991 17.0809 2.49723
1 5.57745 17.0795 2.88955
1 3.66043 17.0796 4.45895
2 5.57681 17.0805 4.85144
1 5.57705 15.1625 5.24406
1 5.58021 17.076 6.81317
2 5.5772 15.1621 7.2069
1 3.66038 15.1617 7.59902
1 5.57746 15.1628 9.16889
2 3.66051 15.1627 9.56109
1 3.66048 17.0767 9.95668
1 3.66009 15.1623 11.5242
2 3.66047 17.0789 11.9174
1 5.57746 17.08 12.309
1 3.65994 17.0795 13.8783
2 5.57715 17.08 14.272
1 5.57707 15.1626 14.664
1 5.57921 17.0797 16.2352
2 5.57683 15.1613 16.6262
1 3.65674 15.1698 17.0227
1 5.58407 15.1646 18.5898
2 3.69453 15.1275 18.9808
1 3.55785 17.0799 19.3585
1 3.65899 15.1683 20.9403
2 3.66185 17.08 21.3498
1 5.52101 17.0799 21.7378
1 3.66731 17.0796 23.2928
2 5.57992 17.08 23.6866
1 5.58209 15.1659 24.0808
1 5.58246 17.0798 25.6518
2 5.5747 15.1631 26.0455
1 3.66022 15.1627 26.4388
1 5.57713 15.1636 28.0082
2 3.661 18.996 0.141457
1 3.658 20.9063 0.539578
1 3.66041 18.9974 2.10384
2 3.66119 20.914 2.50942
1 5.57812 20.9139 2.88678
1 3.66048 20.914 4.51375
2 5.60237 20.9143 4.83131
1 5.57006 19.0002 5.24879
1 5.47194 20.914 6.82923
2 5.61211 18.9623 7.2067
1 3.66046 19.1025 7.58417
1 5.5743 19.0044 9.16458
2 3.66046 18.9721 9.58195
1 3.66049 20.914 9.89978
1 3.66046 18.9963 11.5266
2 3.66064 20.9141 11.9059
1 5.57725 20.9137 12.3096
1 3.66035 20.9134 13.8773
2 5.57669 20.9182 14.2719
1 5.5779 18.9977 14.6641
1 5.57732 20.9106 16.2335
2 5.5765 18.9974 16.6263
1 3.65714 18.9896 17.0231
1 5.58413 18.9955 18.5898
2 3.69427 19.0322 18.9809
1 3.66354 20.9179 19.3748
1 3.65942 18.9915 20.9403
2 3.65541 20.9131 21.3371
1 5.57916 20.9086 21.7263
1 3.66407 20.9142 23.2979
2 5.57715 20.9146 23.6893
1 5.58206 18.9941 24.0808
1 5.58021 20.9064 25.6496
2 5.5741 18.9957 26.0456
1 3.66024 18.9963 26.4389
1 5.57755 18.9961 28.0079
2 3.62809 22.7711 0.158733
1 3.76506 24.7481 0.459851
1 3.66793 22.835 2.10052
2 3.63619 24.7478 2.51191
1 5.577 24.7481 2.83509
1 3.6598 24.7483 4.46104
2 5.57672 24.7475 4.84086
1 5.57006 22.8282 5.24933
1 5.58024 24.7519 6.81168
2 5.61212 22.8657 7.20704
1 3.66044 22.7254 7.5841
1 5.57436 22.8235 9.16475
2 3.66048 22.8558 9.58165
1 3.66046 24.7511 9.95677
1 3.66017 22.8314 11.526
2 3.66027 24.7468 11.9183
1 5.57759 24.7541 12.3103
1 3.66346 24.7531 13.8817
2 5.57718 24.7486 14.2764
1 5.5767 22.8375 14.6731
1 5.57754 24.6885 16.2243
2 5.578 22.8092 16.6329
1 3.66308 22.8376 17.0173
1 5.5736 22.8302 18.5882
2 3.65872 22.8309 18.98
1 3.64891 24.7476 19.3791
1 3.66397 22.8276 20.9416
2 3.69362 24.7138 21.3455
1 5.5743 24.7432 21.7303
1 3.65802 24.7563 23.3479
2 5.6016 24.7499 23.6778
1 5.56985 22.8363 24.086
1 5.47281 24.7481 25.7279
2 5.61007 22.7713 26.0287
1 3.66359 22.9433 26.4274
1 5.57456 22.9429 28.0187
2 7.52835 -0.140261 0.14257
1 7.49667 1.74689 0.535255
1 7.48679 -0.176984 2.09987
2 7.49352 1.74217 2.49761
1 9.41126 1.74343 2.88923
1 7.49455 1.74354 4.45916
2 9.41173 1.74334 4.85185
1 9.41149 -0.173696 5.24431
1 9.41166 1.74342 6.81405
2 9.41167 -0.173579 7.20668
1 7.4945 -0.174003 7.59942
1 9.4117 -0.173799 9.16906
2 7.49465 -0.17352 9.56229
1 7.49458 1.74359 9.95412
1 7.49343 -0.17402 11.5262
2 7.4946 1.74589 11.9164
1 9.41198 1.74347 12.309
1 7.49179 1.73819 13.8799
2 9.41155 1.74597 14.2702
1 9.40641 -0.169219 14.663
1 9.40573 1.7435 16.2328
2 9.43587 -0.149899 16.6045
1 7.55791 -0.173204 17.0319
1 9.40502 -0.281577 18.6513
2 7.4513 -0.179684 18.956
1 7.39175 1.74189 19.3593
1 7.59767 -0.173838 20.9512
2 7.48809 1.77795 21.3562
1 9.41483 1.64363 21.7187
1 7.49809 1.73487 23.2972
2 9.4127 1.76817 23.7127
1 9.4113 -0.174114 24.0286
1 9.41 1.74366 25.6563
2 9.41106 -0.174347 26.0342
1 7.49484 -0.179222 26.4435
1 9.41543 -0.170889 28.0054
2 7.49327 3.66123 0.141508
1 7.48881 5.57762 0.539461
1 7.49722 3.65668 2.10341
2 7.528 5.54399 2.49702
1 9.41502 5.57537 2.89015
1 7.49141 5.5851 4.45449
2 9.41111 5.57819 4.85231
1 9.41126 3.6608 5.24416
1 9.41155 5.57757 6.81405
2 9.41172 3.66047 7.2067
1 7.49457 3.66041 7.59914
1 9.41168 3.66046 9.16899
2 7.49458 3.6606 9.56131
1 7.49502 5.5775 9.95427
1 7.49488 3.66089 11.5232
2 7.49444 5.57756 11.9165
1 9.41171 5.57742 12.3091
1 7.49448 5.57768 13.8787
2 9.4108 5.57714 14.2716
1 9.41107 3.66075 14.6638
1 9.41159 5.57717 16.234
2 9.41092 3.65972 16.6255
1 7.48951 3.64732 17.0225
1 9.41557 3.66377 18.5871
2 7.53148 3.69549 18.9806
1 7.49467 5.58142 19.375
1 7.478 3.66346 20.9395
2 7.5166 5.57766 21.3301
1 9.41497 5.57797 21.7284
1 7.48855 5.5776 23.2898
2 9.40812 5.57778 23.6901
1 9.41206 3.66361 24.0858
1 9.4119 5.57798 25.6535
2 9.41091 3.66117 26.0465
1 7.49481 3.65956 26.4387
1 9.41126 3.66077 28.0083
2 7.55455 7.46201 0.125452
1 7.3818 9.40868 0.523784
1 7.38284 7.49758 2.11513
2 7.55447 9.4444 2.51373
1 9.41928 9.41416 2.89293
1 7.49051 9.40433 4.45588
2 9.41156 9.41082 4.85366
1 9.41164 7.49462 5.24446
1 9.41191 9.4119 6.8146
2 9.4121 7.49446 7.20623
1 7.49783 7.49455 7.60017
1 9.41119 7.49499 9.16879
2 7.49103 7.49455 9.5617
1 7.49546 9.41176 9.95425
1 7.4949 7.49456 11.5239
2 7.49424 9.41146 11.9164
1 9.41193 9.41204 12.3087
1 7.49463 9.41171 13.8787
2 9.4116 9.41162 14.2713
1 9.412 7.49447 14.6639
1 9.41157 9.41168 16.2335
2 9.41166 7.49475 16.626
1 7.49469 7.49457 17.0188
1 9.41165 7.49425 18.5882
2 7.49489 7.49581 18.9807
1 7.49481 9.41231 19.3737
1 7.48839 7.49212 20.9447
2 7.49467 9.41089 21.3358
1 9.41162 9.41192 21.7285
1 7.49427 9.41194 23.2977
2 9.41128 9.41162 23.6909
1 9.41204 7.4946 24.0833
1 9.41175 9.41148 25.653
2 9.41143 7.49521 26.0437
1 7.49058 7.50233 26.4422
1 9.41932 7.49212 28.0045
2 7.52784 11.3624 0.142403
1 7.49781 13.2499 0.535354
1 7.48984 11.3287 2.09964
2 7.49424 13.2454 2.49728
1 9.41132 13.2451 2.88931
1 7.49441 13.2456 4.45917
2 9.4111 13.2463 4.85227
1 9.41157 11.3284 5.24395
1 9.41156 13.2458 6.81385
2 9.41216 11.3294 7.20624
1 7.49464 11.3288 7.59918
1 9.40778 11.326 9.16802
2 7.49383 11.3291 9.56174
1 7.49369 13.2457 9.95412
1 7.49459 11.3287 11.5238
2 7.49434 13.2458 11.916
1 9.40844 13.2458 12.3116
1 7.49448 13.2457 13.8787
2 9.41055 13.2457 14.2725
1 9.41176 11.3287 14.6638
1 9.41199 13.2454 16.2331
2 9.41154 11.3288 16.6263
1 7.49455 11.3283 17.0187
1 9.41161 11.3282 18.5883
2 7.49447 11.3322 18.9812
1 7.49417 13.2517 19.382
1 7.49483 11.3251 20.9429
2 7.49464 13.2234 21.3425
1 9.40941 13.252 21.7272
1 7.49487 13.2488 23.2985
2 9.41294 13.2456 23.6905
1 9.41177 11.3287 24.0837
1 9.40848 13.2415 25.6524
2 9.4114 11.3272 26.0456
1 7.49142 11.3214 26.4425
1 9.41493 11.3307 28.0074
2 7.49409 15.1642 0.141923
1 7.49434 17.0798 0.534965
1 7.49417 15.1626 2.10417
2 7.49508 17.0799 2.49686
1 9.41208 17.0799 2.89034
1 7.49418 17.0802 4.45955
2 9.41094 17.0794 4.85244
1 9.41087 15.1628 5.24441
1 9.4117 17.0796 6.81449
2 9.41203 15.162 7.20579
1 7.49462 15.1631 7.59935
1 9.40768 15.1655 9.16803
2 7.49392 15.1623 9.56185
1 7.49457 17.0801 9.95383
1 7.49469 15.1628 11.5238
2 7.49445 17.0798 11.9164
1 9.41198 17.0795 12.3088
1 7.49462 17.0802 13.8786
2 9.41199 17.0791 14.2716
1 9.41187 15.1626 14.6637
1 9.41053 17.0801 16.2354
2 9.41173 15.1605 16.6265
1 7.49447 15.1688 17.0204
1 9.40887 15.1676 18.5908
2 7.49523 15.165 18.9877
1 7.49509 17.0798 19.2934
1 7.49465 15.1025 20.935
1 9.47193 17.0799 21.7351
1 7.49197 17.0799 23.3766
2 9.38527 17.0798 23.6641
1 9.41465 15.1688 24.0855
1 9.51086 17.0797 25.667
2 9.38161 15.1276 26.0456
1 7.49116 15.1614 26.4375
1 9.41143 15.1699 28.0031
2 7.49478 18.9953 0.141872
1 7.49716 20.9103 0.53478
1 7.49442 18.9971 2.10438
2 7.49492 20.9145 2.49602
1 9.41148 20.9142 2.88905
1 7.49777 20.914 4.45664
2 9.41191 20.914 4.85222
1 9.41193 18.9968 5.24448
1 9.41245 20.914 6.81414
2 9.41222 18.9975 7.20649
1 7.4984 18.9942 7.60026
1 9.41166 18.9968 9.16909
2 7.49395 18.9977 9.56208
1 7.49478 20.914 9.95447
1 7.49491 18.9973 11.5242
2 7.49473 20.9149 11.916
1 9.41445 20.9215 12.313
1 7.49079 20.9109 13.8779
2 9.37698 20.8787 14.27
1 9.40897 18.9931 14.6649
1 9.41892 20.9142 16.2262
2 9.41177 19 16.6273
1 7.49467 18.9914 17.02
1 9.40901 18.9914 18.5909
2 7.49564 18.994 18.9874
1 7.49157 20.9043 19.383
1 7.49474 19.0573 20.935
2 7.49563 20.9361 21.3432
1 9.40944 20.907 21.7273
1 7.49467 20.9113 23.2988
2 9.41299 20.9142 23.6899
1 9.41482 18.9909 24.0853
1 9.40833 20.9183 25.6525
2 9.37912 19.0319 26.0453
1 7.4906 18.9987 26.4374
1 9.41484 18.99 28.0036
2 7.52809 22.7978 0.142351
1 7.39527 24.7481 0.521307
1 7.48672 22.8343 2.10003
2 7.51917 24.7481 2.51734
1 9.41472 24.748 2.89214
1 7.49492 24.7477 4.46237
2 9.4129 24.7482 4.85313
1 9.41136 22.8311 5.24425
1 9.4112 24.748 6.81423
2 9.41252 22.8306 7.20615
1 7.49845 22.8337 7.6002
1 9.41192 22.831 9.16841
2 7.49435 22.8302 9.56189
1 7.49422 24.7476 9.95384
1 7.49465 22.8307 11.523
2 7.49554 24.7449 11.9161
1 9.41501 24.7405 12.3148
1 7.4882 24.7559 13.88
2 9.37743 24.782 14.2812
1 9.51778 22.8299 14.6461
1 9.41208 24.7485 16.286
2 9.38545 22.8048 16.6264
1 7.49213 22.8457 17.0242
1 9.41076 22.9301 18.6047
2 7.4606 22.7926 18.9819
1 7.60997 24.7468 19.3621
1 7.49961 22.8348 20.9385
2 7.43678 24.7173 21.3509
1 9.41134 24.8539 21.6535
1 7.50131 24.7557 23.2924
2 9.41142 24.7236 23.706
1 9.4117 22.8285 24.0859
1 9.4128 24.7476 25.6549
2 9.41219 22.832 26.0468
1 7.4947 22.8365 26.4429
1 9.41533 22.8282 28.0071
2 11.3297 -0.173214 0.143045
1 11.3282 1.74333 0.534925
1 11.3291 -0.173763 2.10435
2 11.3291 1.74347 2.49691
1 13.2463 1.74302 2.89012
1 11.3287 1.74341 4.45921
2 13.2458 1.74353 4.85222
1 13.2461 -0.17401 5.24411
1 13.2457 1.74339 6.81413
2 13.2457 -0.173623 7.20672
1 11.3287 -0.173659 7.59921
1 13.2457 -0.173645 9.16931
2 11.3286 -0.172586 9.56025
1 11.3287 1.74358 9.95424
1 11.3291 -0.170091 11.5217
2 11.3294 1.74436 11.9163
1 13.249 1.7508 12.3135
1 11.3249 1.74154 13.8778
2 13.2107 1.70962 14.2712
1 13.2457 -0.173734 14.6656
1 13.2527 1.74612 16.2297
2 13.2469 -0.173635 16.6254
1 11.3285 -0.180799 17.0224
1 13.2529 -0.171216 18.5849
2 11.3863 -0.141127 18.9638
1 11.3241 1.74318 19.378
1 11.2162 -0.176557 20.9541
2 11.3608 1.77706 21.3343
1 13.2484 1.74557 21.7262
1 11.3226 1.7358 23.2912
2 13.2203 1.74274 23.6708
1 13.2533 -0.170498 24.0877
1 13.3513 1.74341 25.6681
2 13.2107 -0.2081 26.0455
1 11.3244 -0.176452 26.4397
1 13.2493 -0.166618 28.0039
2 11.3294 3.65967 0.142467
1 11.3286 5.57729 0.534387
1 11.3284 3.66057 2.10431
2 11.3295 5.57792 2.49678
1 13.2459 5.5774 2.88943
1 11.3286 5.57756 4.45917
2 13.2457 5.57757 4.85183
1 13.2457 3.66052 5.24443
1 13.2457 5.57758 6.81412
2 13.2458 3.66048 7.20638
1 11.3287 3.66045 7.59937
1 13.2462 3.66049 9.16842
2 11.329 3.66043 9.56171
1 11.3288 5.57745 9.95423
1 11.3285 3.66046 11.5237
2 11.3292 5.57685 11.916
1 13.249 5.57007 12.3134
1 11.3248 5.58017 13.8778
2 13.2112 5.61214 14.2713
1 13.3513 3.66052 14.6487
1 13.2532 5.57432 16.2292
2 13.2209 3.66055 16.6465
1 11.3254 3.66055 17.0214
1 13.2447 3.65967 18.5916
2 11.3273 3.66011 18.9821
1 11.3283 5.57728 19.3735
1 11.3315 3.66417 20.9427
2 11.3292 5.57834 21.3359
1 13.2458 5.57714 21.7286
1 11.3285 5.57704 23.2984
2 13.2464 5.57706 23.6903
1 13.2529 3.65694 24.0874
1 13.2431 5.58137 25.6521
2 13.2112 3.69509 26.0456
1 11.3248 3.66301 26.439
1 13.249 3.65301 28.0035
2 11.3297 7.49507 0.142831
1 11.3292 9.41161 0.534642
1 11.3294 7.49459 2.10439
2 11.3298 9.41112 2.49623
1 13.2458 9.41118 2.88947
1 11.3289 9.4122 4.45933
2 13.2461 9.41001 4.85007
1 13.2458 7.49439 5.24447
1 13.2458 9.40856 6.81144
2 13.2457 7.49452 7.20717
1 11.3287 7.49465 7.59933
1 13.2458 7.49355 9.16921
2 11.3289 7.49385 9.56133
1 11.326 9.40779 9.95512
1 11.3291 7.49437 11.5241
2 11.3294 9.4123 11.9168
1 13.2458 9.41136 12.3093
1 11.3288 9.41128 13.8786
2 13.2462 9.41273 14.271
1 13.2431 7.49848 14.6648
1 13.2458 9.4115 16.2335
2 13.2465 7.49402 16.6266
1 11.3291 7.49419 17.0184
1 13.2458 7.49459 18.5883
2 11.3287 7.4946 18.9811
1 11.3287 9.41164 19.3737
1 11.3286 7.49459 20.9433
2 11.3287 9.41158 21.3359
1 13.2458 9.41166 21.7285
1 11.3286 9.41171 23.2982
2 13.2458 9.41153 23.6906
1 13.2458 7.49445 24.0835
1 13.2456 9.4115 25.6528
2 13.2461 7.49529 26.046
1 11.3288 7.49427 26.4383
1 13.2459 7.49462 28.0079
2 11.3294 11.3279 0.141857
1 11.3345 13.2446 0.535757
1 11.3283 11.3287 2.10475
2 11.3287 13.2453 2.49762
1 13.2507 13.2565 2.89313
1 11.3253 13.2431 4.45801
2 13.212 13.2101 4.86138
1 13.2428 11.324 5.24312
1 13.2534 13.2487 6.86386
2 13.2466 11.3041 7.18702
1 11.3323 11.3367 7.60329
1 13.2458 11.4344 9.18406
2 11.2941 11.294 9.56153
1 11.4346 13.2458 9.93871
1 11.3361 11.3319 11.5194
2 11.3038 13.2457 11.9368
1 13.2457 13.2457 12.2547
1 11.328 13.2458 13.8815
2 13.2457 13.2458 14.2606
1 13.2458 11.3292 14.6644
1 13.2458 13.2457 16.2321
2 13.2457 11.3287 16.6265
1 11.3286 11.3288 17.0188
1 13.2457 11.3287 18.5885
2 11.3286 11.3287 18.981
1 11.329 13.2456 19.3736
1 11.3289 11.3287 20.9433
2 11.3288 13.2459 21.3358
1 13.2456 13.2455 21.7286
1 11.3285 13.245 23.2975
2 13.2427 13.2462 23.6908
1 13.2455 11.3286 24.0834
1 13.253 13.2446 25.6545
2 13.2448 11.3271 26.0458
1 11.3285 11.3276 26.4381
1 13.2483 11.3354 28.0096
2 11.3067 15.1385 0.16986
1 11.336 17.0772 0.477875
1 11.3309 15.1623 2.10697
2 11.3285 17.0794 2.48603
1 13.2505 17.0697 2.89207
1 11.3249 17.0824 4.457
2 13.212 17.1164 4.8498
1 13.3503 15.1639 5.22483
1 13.2532 17.0799 6.80721
2 13.2205 15.1884 7.20609
1 11.3287 15.1553 7.60613
1 13.2446 15.0575 9.18686
2 11.2933 15.1974 9.56294
1 11.3261 17.0835 9.95495
1 11.3361 15.1596 11.5197
2 11.3294 17.0791 11.9173
1 13.2457 17.0803 12.3093
1 11.329 17.0793 13.879
2 13.2461 17.0793 14.2705
1 13.2457 15.1625 14.6645
1 13.2431 17.0761 16.2326
2 13.2463 15.1621 16.6266
1 11.3289 15.1631 17.0187
1 13.2459 15.1628 18.5882
2 11.3294 15.1623 18.9807
1 11.3261 17.0802 19.375
1 11.3225 15.1655 20.9442
2 11.3515 17.0799 21.3392
1 13.2499 17.08 21.7258
1 11.3219 17.0802 23.3433
2 13.2657 17.0802 23.6696
1 13.2444 15.1664 24.0894
1 13.1442 17.0767 25.6723
2 13.2816 15.1286 26.0522
1 11.3369 15.2699 26.434
1 13.1823 15.1675 27.9949
2 11.3286 19.0221 0.162454
1 11.3281 20.9173 0.537316
1 11.3292 18.9973 2.10751
2 11.3281 20.9155 2.49814
1 13.2419 20.9115 2.89041
1 11.329 20.9136 4.45935
2 13.2468 20.9153 4.85196
1 13.2432 19.0015 5.24557
1 13.2458 20.9138 6.81402
2 13.2465 18.9965 7.20784
1 11.3291 18.9966 7.59883
1 13.2457 18.9979 9.16927
2 11.329 18.9966 9.55991
1 11.3288 20.9134 9.95127
1 11.3289 18.9936 11.5214
2 11.3275 20.889 11.8951
1 13.2418 20.9214 12.3103
1 11.3256 21.02 13.891
2 13.2554 20.8781 14.2496
1 13.256 18.9962 14.6692
1 13.3439 20.917 16.2455
2 13.2104 18.9624 16.6264
1 11.325 18.9944 17.0198
1 13.249 19.005 18.5838
2 11.3296 18.9977 18.9808
1 11.3315 20.9108 19.3752
1 11.3224 18.9943 20.9441
2 11.328 20.9137 21.3368
1 13.2458 20.9149 21.7287
1 11.3288 20.9144 23.298
2 13.2451 20.9133 23.6905
1 13.2384 18.9935 24.0881
1 13.2486 20.9181 25.652
2 13.2798 19.0331 26.0458
1 11.3289 18.8911 26.4233
1 13.2455 18.9828 28.0056
2 11.3292 22.8315 0.142349
1 11.33 24.7484 0.534218
1 11.3278 22.8312 2.10438
2 11.328 24.7476 2.4962
1 13.2419 24.751 2.89028
1 11.329 24.7481 4.45911
2 13.2462 24.7473 4.85225
1 13.2457 22.8311 5.24461
1 13.2458 24.7481 6.81404
2 13.246 22.8309 7.20627
1 11.3288 22.831 7.6008
1 13.2453 22.831 9.16842
2 11.3286 22.8311 9.57228
1 11.3287 24.7487 9.95132
1 11.3289 22.8309 11.5785
2 11.3286 24.7729 11.8956
1 13.2426 24.7407 12.3135
1 11.3291 24.6417 13.8935
2 13.2814 24.7816 14.2708
1 13.1471 22.8283 14.6526
1 13.2356 24.749 16.2282
2 13.2359 22.8678 16.6474
1 11.3217 22.8417 16.9703
1 13.2529 22.8213 18.5866
2 11.3622 22.7967 18.9704
1 11.2179 24.7507 19.3635
1 11.3233 22.831 20.9369
2 11.3884 24.7154 21.3532
1 13.2535 24.7455 21.7317
1 11.3247 24.7559 23.2953
2 13.2465 24.7493 23.692
1 13.2453 22.8314 24.0828
1 13.2431 24.7443 25.6524
2 13.2447 22.831 26.0447
1 11.3285 22.8325 26.438
1 13.2427 22.831 28.0053
2 15.1636 -0.19911 0.161973
1 15.1629 1.74326 0.480332
1 15.1601 -0.170436 2.10625
2 15.1632 1.74419 2.48651
1 17.0795 1.74426 2.89002
1 15.1628 1.74332 4.45768
2 17.0798 1.74359 4.85171
1 17.0799 -0.170487 5.247
1 17.0799 1.74355 6.81412
2 17.0799 -0.172606 7.2081
1 15.1629 -0.173784 7.59901
1 17.0798 -0.173475 9.16925
2 15.1629 -0.174678 9.56021
1 15.1628 1.74275 9.95136
1 15.1624 -0.177211 11.5217
2 15.1629 1.71867 11.8959
1 17.0767 1.75092 12.3134
1 15.1627 1.84861 13.8939
2 17.1146 1.70875 14.2713
1 17.0821 -0.177692 14.6649
1 17.0724 1.7467 16.2292
2 17.0787 -0.172222 16.627
1 15.1625 -0.173431 17.0185
1 17.0799 -0.173769 18.5884
2 15.1637 -0.173424 18.9808
1 15.1623 1.74369 19.3757
1 15.1635 -0.173078 20.9428
2 15.1637 1.74311 21.3467
1 17.0806 1.74332 21.7257
1 15.1627 1.74332 23.3526
2 17.1047 1.74341 23.6704
1 17.0724 -0.17044 24.0877
1 16.9743 1.74335 25.6682
2 17.1145 -0.208553 26.0458
1 15.1628 -0.0680765 26.423
1 17.0766 -0.165988 28.0033
2 15.1628 3.68524 0.162492
1 15.1628 5.58061 0.53728
1 15.1629 3.66121 2.10717
2 15.1628 5.5788 2.49831
1 17.0798 5.57732 2.88943
1 15.1628 5.5775 4.45934
2 17.0799 5.57756 4.85183
1 17.0799 3.66048 5.24436
1 17.0799 5.57755 6.81406
2 17.0798 3.66045 7.20636
1 15.1628 3.66047 7.60085
1 17.0795 3.66045 9.16842
2 15.1628 3.66046 9.57228
1 15.1627 5.57813 9.95137
1 15.1628 3.66049 11.5783
2 15.1628 5.60246 11.8961
1 17.0767 5.57003 12.3134
1 15.1628 5.47192 13.8938
2 17.1145 5.61212 14.2713
1 16.9743 3.66045 14.6487
1 17.0724 5.57431 16.2292
2 17.1049 3.66046 16.6466
1 15.1628 3.66053 16.9643
1 17.0805 3.6605 18.5912
2 15.1629 3.66047 18.97
1 15.1629 5.57714 19.3742
1 15.1624 3.65996 20.9412
2 15.1629 5.57711 21.3363
1 17.08 5.57756 21.7286
1 15.1627 5.57784 23.298
2 17.0783 5.57739 23.6905
1 17.0728 3.65736 24.0877
1 17.0826 5.58138 25.6521
2 17.1143 3.69501 26.0457
1 15.1628 3.55489 26.4231
1 17.0766 3.65297 28.0035
2 15.1629 7.49392 0.141389
1 15.1628 9.40764 0.535121
1 15.1628 7.49536 2.10425
2 15.1628 9.41538 2.4972
1 17.0798 9.41121 2.8897
1 15.1627 9.41059 4.45951
2 17.0794 9.41103 4.85153
1 17.0798 7.49454 5.24445
1 17.0794 9.41211 6.81437
2 17.0799 7.4946 7.20664
1 15.1628 7.49465 7.59919
1 17.0797 7.4948 9.16912
2 15.1624 7.49491 9.55996
1 15.1655 9.40801 9.95507
1 15.1628 7.49789 11.5212
2 15.162 9.41237 11.9173
1 17.0795 9.41193 12.3087
1 15.1628 9.41253 13.8787
2 17.0795 9.41234 14.271
1 17.0826 7.49842 14.6649
1 17.0798 9.41151 16.2335
2 17.0791 7.49403 16.6266
1 15.1628 7.49477 17.019
1 17.0799 7.49454 18.5884
2 15.1628 7.49425 18.9809
1 15.1628 9.41159 19.3736
1 15.1628 7.49454 20.9433
2 15.1629 9.41168 21.3359
1 17.08 9.4116 21.7286
1 15.1628 9.4115 23.2981
2 17.0791 9.41101 23.6909
1 17.0789 7.49443 24.0833
1 17.08 9.41155 25.6527
2 17.0793 7.49533 26.0455
1 15.1628 7.49546 26.4381
1 17.0796 7.49455 28.0079
2 15.1628 11.3042 0.134525
1 15.1627 13.1859 0.539119
1 15.1628 11.3338 2.09326
2 15.1627 13.244 2.46777
1 17.0749 13.2564 2.89177
1 15.1624 13.3554 4.47213
2 17.1131 13.2099 4.85087
1 17.0828 11.3246 5.24597
1 17.0726 13.2489 6.8094
2 17.0785 11.33 7.20691
1 15.1596 11.336 7.60386
1 17.0837 11.326 9.16801
2 15.1974 11.2944 9.56151
1 15.0572 13.2461 9.93976
1 15.1553 11.3319 11.5195
2 15.1876 13.2458 11.937
1 17.0832 13.2461 12.3116
1 15.1635 13.2457 13.8815
2 17.0809 13.2457 14.2728
1 17.0796 11.3288 14.6637
1 17.0798 13.2457 16.2337
2 17.0799 11.3286 16.6261
1 15.1628 11.3287 17.0188
1 17.0799 11.3287 18.5884
2 15.1628 11.3287 18.981
1 15.1628 13.2458 19.3737
1 15.1628 11.3287 20.9432
2 15.1629 13.2457 21.3365
1 17.08 13.2458 21.7285
1 15.1625 13.2477 23.3004
2 17.0823 13.2454 23.6912
1 17.0804 11.3284 24.0834
1 17.0745 13.2488 25.6557
2 17.0804 11.3278 26.0456
1 15.1627 11.3322 26.4385
1 17.0773 11.3355 28.0096
1 15.1629 17.1396 0.539212
1 15.1629 15.1628 2.25167