1764
Atoms. Timestep: 843
2 -0.16837 -0.148114 0.196825
1 -0.159313 1.74792 0.392031
1 -0.149492 -0.133837 2.07387
2 -0.141545 1.79219 2.37023
1 1.7729 1.76891 2.74653
1 -0.0973371 1.84692 4.34439
2 1.76242 1.51432 4.64759
1 1.75901 -0.249008 5.16057
1 1.76809 1.92825 6.51909
2 1.77563 -0.167375 7.08903
1 -0.129333 -0.138538 7.49375
1 1.77702 -0.140832 9.04227
2 -0.127517 -0.189665 9.47964
1 -0.109734 1.68728 9.89508
1 -0.00627013 -0.114306 11.4225
2 -0.136226 1.78905 11.86
1 1.76242 1.84886 12.267
1 -0.146303 1.79672 13.8463
2 1.77271 1.7885 14.2699
1 1.89523 -0.0899976 14.7166
1 1.72424 1.79228 16.2814
2 1.77652 -0.134113 16.6732
1 -0.14157 -0.140212 17.0642
1 1.7512 -0.123985 18.6754
2 -0.169003 -0.124074 19.0365
1 -0.234075 1.834 19.4476
1 -0.158856 -0.117836 20.9762
2 -0.1675 1.76314 21.4296
1 1.76189 1.75013 21.8288
1 -0.128346 1.76777 23.3985
2 1.73993 2.01631 23.7284
1 1.66707 1.51561 25.5761
2 2.01859 -0.12629 26.3232
1 1.59383 -0.153985 28.1026
2 -0.147826 3.62478 -0.047992
1 -0.1429 5.4904 0.374027
1 -0.134516 3.67155 1.96418
2 -0.144417 5.59272 2.31751
1 1.75186 5.67712 2.75
1 -0.0905049 5.61163 4.31157
2 1.76785 5.9771 4.65146
1 1.79238 5.34917 6.44514
2 1.77542 3.6569 7.27825
1 -0.115604 3.68973 7.54014
1 1.7713 3.8444 9.16475
2 -0.129327 3.44967 9.42568
1 -0.162186 3.86471 11.2698
2 -0.127092 5.57984 12.086
1 1.7832 5.60428 12.349
1 -0.0993355 5.44085 13.9449
2 1.78556 5.58223 14.3356
1 1.76028 3.67743 14.7152
1 1.73514 5.5844 16.2934
2 1.75545 3.68539 16.679
1 -0.326673 3.68199 17.278
1 1.86356 3.68026 18.6163
2 0.109847 3.6794 19.1328
1 -0.217967 5.53918 19.4584
1 -0.0793431 3.71464 21.0517
2 -0.397077 5.5928 21.363
1 0.0456091 5.59915 23.2138
2 1.76935 5.63868 24.0453
1 1.77473 3.76805 24.2966
1 1.75519 5.61764 25.9328
2 1.75184 3.65148 26.2231
1 -0.134069 3.638 26.6063
1 1.76373 3.62896 28.1779
2 -0.144223 7.24811 -0.141109
1 -0.152111 7.67346 1.72357
2 -0.166057 9.41704 2.48279
1 1.75835 9.4162 2.6858
1 -0.100777 9.46378 4.33625
2 1.79095 9.52681 4.56596
1 1.77704 7.76011 5.35307
2 1.78955 7.09256 7.15163
1 -0.0330599 7.3669 7.55649
1 1.79591 7.31666 9.10239
2 -0.10324 7.74275 9.4198
1 -0.0816318 9.51508 9.90157
1 -0.138673 7.30732 11.2642
2 -0.14273 9.431 11.8456
1 1.75845 9.34056 12.2185
1 -0.113592 9.53898 13.7883
2 1.73078 9.42663 14.2616
1 1.7785 7.50105 14.6725
1 1.76166 9.41544 16.2489
2 1.76207 7.5036 16.6613
1 -0.128346 7.51002 17.1257
1 1.77412 7.4836 18.6572
2 -0.141708 7.4895 19.0542
1 -0.148559 9.40776 19.4697
1 -0.0698654 7.44796 21.0268
2 -0.136078 9.39735 21.4359
1 1.76719 9.41867 21.8438
1 -0.14577 9.41893 23.4152
2 1.76519 9.41844 23.8242
1 1.76932 7.51388 24.2655
1 1.76669 9.43018 25.8068
2 1.76942 7.54601 26.2399
1 -0.148766 7.51203 26.6131
1 1.71914 7.59304 28.21
2 -0.143936 11.5875 -0.143627
1 -0.154656 13.3482 0.367515
1 -0.156958 11.1571 1.71426
2 -0.159191 13.2394 2.29594
1 1.75264 13.1944 2.65339
1 -0.124459 13.208 4.27439
2 1.77123 13.1878 4.52629
1 1.77155 11.3428 5.36848
2 1.77689 11.3555 7.23053
1 -0.0463558 11.5079 7.53357
1 1.78426 11.3376 9.10249
2 -0.146692 11.3933 9.50722
1 -0.141403 13.2601 9.9093
1 -0.154216 11.3598 11.4937
2 -0.145022 13.2567 11.8895
1 1.77461 13.2447 12.2892
1 -0.14003 13.2563 13.8557
2 1.77117 13.2467 14.2739
1 1.78175 11.3416 14.6843
1 1.77058 13.2448 16.2649
2 1.77074 11.3307 16.663
1 -0.133255 11.312 17.0762
1 1.77439 11.3288 18.6467
2 -0.144956 11.3246 19.0522
1 -0.137811 13.2406 19.4552
1 -0.147058 11.3266 21.0329
2 -0.146629 13.2431 21.4358
1 1.7688 13.2438 21.8368
1 -0.144845 13.2438 23.4185
2 1.7678 13.2418 23.8217
1 1.76823 11.333 24.2213
1 1.75884 13.2407 25.8148
2 1.7641 11.3258 26.1962
1 -0.148658 11.3317 26.6093
1 1.71874 11.269 28.1852
2 -0.146278 15.2098 -0.0479597
1 -0.198147 17.0756 0.389561
1 -0.179979 15.1897 1.97837
2 -0.159198 17.0779 2.36381
1 1.77984 17.0637 2.73754
1 -0.0389554 17.032 4.31152
2 1.81537 17.0745 4.72656
1 1.77309 14.9211 5.35432
1 1.77343 17.1689 6.6636
2 1.76466 15.4191 7.196
1 -0.108374 15.1025 7.49247
1 1.76114 15.1406 9.08308
2 -0.152469 15.1478 9.4952
1 -0.123634 17.0547 9.87116
1 -0.176698 15.1546 11.4758
2 -0.163644 17.0567 11.8741
1 1.73013 16.9347 12.3276
1 -0.155099 17.0853 13.8619
2 1.76453 17.0591 14.2808
1 1.77362 15.1518 14.6904
1 1.7621 17.05 16.2763
2 1.76735 15.1494 16.6691
1 -0.153344 15.154 17.0756
1 1.77484 15.1609 18.6427
2 -0.141638 15.1572 19.05
1 -0.143029 17.0711 19.4558
1 -0.141226 15.1572 21.0338
2 -0.146799 17.0722 21.4341
1 1.7698 17.0744 21.8312
1 -0.145833 17.0614 23.4139
2 1.76387 17.059 23.8115
1 1.76889 15.1486 24.2205
1 1.77141 17.0556 25.7885
2 1.76833 15.1549 26.2021
1 -0.146631 15.166 26.6099
1 1.76426 15.1741 28.1768
2 -0.158259 18.9788 -0.0508267
1 -0.157882 20.8771 0.397361
1 -0.173484 18.9651 1.95796
2 -0.147649 20.8935 2.34824
1 1.7456 20.8993 2.78943
1 -0.158769 20.89 4.35013
2 1.78021 20.9063 4.71642
1 1.77615 19.0175 5.10705
1 1.83635 20.9497 6.70281
2 1.77352 19.0489 7.08747
1 -0.164704 19.0064 7.4765
1 1.73731 18.9809 9.01768
2 -0.158169 18.9782 9.47595
1 -0.0796325 20.8869 9.8682
1 -0.286325 18.9438 11.4277
2 -0.0778816 20.9107 11.9129
1 1.83847 21.7257 12.3313
1 -0.206049 20.9316 13.9397
2 1.76544 20.9139 14.2417
1 1.76411 18.9521 14.755
1 1.74651 20.889 16.2859
2 1.72731 18.9778 16.6913
1 -0.151214 18.9968 17.0868
1 1.74689 18.982 18.6867
2 -0.160197 18.9839 19.0595
1 -0.153392 20.896 19.4437
1 -0.148268 18.9884 21.0359
2 -0.142754 20.9027 21.4376
1 1.77685 20.9251 21.8335
1 -0.141748 20.8858 23.4293
2 1.79517 20.857 23.8261
1 1.76373 18.9623 24.2115
1 1.87166 20.8263 25.8035
2 1.76904 18.945 26.2073
1 -0.159826 18.9702 26.5943
1 1.7238 18.8557 28.1602
2 -0.146123 22.8347 -0.147282
1 -0.181836 24.7561 0.451439
1 -0.140583 22.8012 1.94139
2 -0.154051 24.6996 2.38207
1 1.76491 24.7253 2.74528
1 -0.148032 24.6839 4.3398
2 1.77772 24.682 4.71689
1 1.76807 22.8064 5.1274
1 1.84098 24.6581 6.73712
2 1.52353 22.8035 7.02282
1 -0.233695 22.809 7.53893
1 1.96248 22.8154 8.87428
2 -0.131252 22.8104 9.45635
1 -0.142761 24.7167 9.86079
1 -0.122499 22.7901 11.3414
2 -0.225065 24.717 12.0129
1 1.7711 24.7441 12.2448
1 -0.096339 25.4763 13.8898
2 1.67504 24.711 14.2594
1 1.90064 22.7815 14.7899
1 1.73973 24.7395 16.2742
2 1.77905 22.8125 16.697
1 -0.14913 22.8119 17.0811
1 1.77853 22.8153 18.6632
2 -0.151425 22.8207 19.046
1 -0.157079 24.7362 19.4435
1 -0.172272 22.8025 20.9873
2 -0.201192 24.7611 21.5156
1 1.69424 24.7082 21.8088
1 0.0650073 25.5625 23.5006
2 1.62236 24.4648 23.6976
1 1.85072 22.7259 24.2985
1 1.82599 25.0558 25.4783
2 1.65854 22.7933 26.2321
1 -0.0934007 23.6141 26.6292
1 1.76219 22.9501 28.1721
2 3.68134 -0.16103 -0.0307242
1 3.64078 1.75191 0.331232
1 3.6591 -0.140527 1.93043
2 3.68167 1.77794 2.32403
1 5.56108 1.75855 2.80828
1 3.62382 1.82867 4.3411
2 5.58044 1.77353 4.74434
1 5.57269 -0.14707 5.1362
1 5.585 1.77314 6.71964
2 5.56731 -0.161255 7.10273
1 3.66651 -0.117411 7.49677
1 5.5723 -0.15719 9.08464
2 3.67047 -0.189905 9.50198
1 3.65254 1.68549 9.92057
1 3.67929 -0.14966 11.5124
2 3.67589 1.80229 11.862
1 5.58435 1.75484 12.2807
1 3.65808 1.93217 13.7989
2 5.59529 1.65554 14.2881
1 6.36002 -0.148854 14.7296
1 5.58242 1.79063 16.2735
2 5.54985 -0.14633 16.5673
1 3.66193 -0.136261 17.132
1 5.5718 -0.144813 18.6984
2 3.67787 -0.138919 19.0663
1 3.68977 1.76975 19.4846
1 3.75091 -0.188185 21.0415
2 3.67647 1.75478 21.4403
1 5.57213 1.79122 21.8533
1 3.61663 1.6897 23.4358
2 5.56734 1.75835 23.8262
1 5.59265 -0.154396 24.2552
1 5.60853 1.77909 25.7998
2 5.64469 -0.138868 26.2409
1 3.78671 -0.106194 26.6709
1 5.5945 -0.271476 28.2124
2 3.66493 3.68681 -0.0632274
1 3.63379 5.60934 0.350903
1 3.67563 3.68151 1.91677
2 3.66976 5.58579 2.32891
1 5.56961 5.5861 2.75529
1 3.6205 5.58402 4.32652
2 5.56575 5.5906 4.72614
1 5.58692 3.68573 5.13895
1 5.55973 5.60201 6.70781
2 5.5841 3.69241 7.1126
1 3.66707 3.67445 7.56007
1 5.54554 3.75111 9.10764
2 3.67549 3.45366 9.4423
1 3.69573 3.87456 11.2831
2 3.68194 5.60246 12.0921
1 5.58751 5.59665 12.3204
1 3.69936 5.60946 13.969
2 5.62386 5.60567 14.2974
1 5.60758 3.67783 14.6787
1 5.60818 5.60148 16.2545
2 5.60521 3.68725 16.6546
1 3.70212 3.68414 17.0381
1 5.60461 3.68347 18.653
2 3.71936 3.67308 19.0427
1 3.69508 5.59116 19.4576
1 3.60631 3.71979 21.0533
2 3.93064 5.59287 21.3505
1 5.68939 5.59114 21.8643
1 3.49188 5.60499 23.2065
2 5.58308 5.59322 23.803
1 5.53623 3.68852 24.2054
1 5.56088 5.59589 25.7714
2 5.58163 3.69191 26.1947
1 3.64617 3.61534 26.5818
1 5.54439 3.80689 28.1425
2 3.66479 7.51407 -0.0469165
1 3.69886 9.41423 0.34023
1 3.68701 7.50707 1.94826
2 3.69971 9.4207 2.30729
1 5.62168 9.42144 2.73433
1 3.67243 9.45936 4.2882
2 5.57884 9.42858 4.73028
1 5.57113 7.51037 5.11544
1 5.56039 9.40909 6.72557
2 5.56766 7.50429 7.10071
1 3.60926 7.54249 7.51111
1 5.52406 7.42584 9.08391
2 3.66085 7.74323 9.4217
1 3.69138 9.50274 9.93756
1 3.71064 7.34067 11.2885
2 3.69024 9.39721 11.8767
1 5.76071 9.3968 12.4811
1 3.58703 9.39472 13.8091
2 5.33999 9.42252 14.3531
1 5.66133 7.55398 14.6683
1 5.5907 9.41833 16.2519
2 5.60046 7.50421 16.6687
1 3.6815 7.51521 17.0519
1 5.58721 7.49545 18.6543
2 3.67327 7.50646 19.0377
1 3.68271 9.40945 19.4611
1 3.61596 7.46177 21.0361
2 3.67048 9.40286 21.4351
1 5.5832 9.39462 21.8339
1 3.67759 9.42066 23.4183
2 5.59021 9.41357 23.8195
1 5.55976 7.49335 24.2154
1 5.58581 9.41456 25.8006
2 5.58837 7.50372 26.2117
1 3.67621 7.50155 26.6281
1 5.6035 7.53156 28.2042
2 3.6544 11.3226 -0.0584848
1 3.71034 13.2365 0.339631
1 3.60784 11.3159 1.90871
2 3.81631 13.2347 2.31634
1 5.56388 13.9096 2.7999
1 3.65766 13.1836 4.29058
2 5.59504 13.2223 4.6297
1 5.59191 11.3169 5.169
1 5.57272 13.237 6.70818
2 5.56985 11.3317 7.11366
1 3.62027 11.3323 7.50249
1 5.58322 11.3481 9.07864
2 3.69054 11.3694 9.52313
1 3.67236 13.2426 9.91103
1 3.71414 11.3321 11.5272
2 3.6845 13.2539 11.8944
1 5.5982 13.2488 12.2887
1 3.69115 13.2334 13.8754
2 5.60301 13.2326 14.277
1 5.65577 11.2893 14.6712
1 5.59953 13.2422 16.2604
2 5.60378 11.3339 16.6655
1 3.68582 11.3221 17.0518
1 5.58942 11.32 18.6406
2 3.68315 11.3291 19.0462
1 3.70171 13.2527 19.4442
1 3.68341 11.3327 21.0286
2 3.68458 13.2492 21.4309
1 5.60652 13.2792 21.8262
1 3.68315 13.2428 23.413
2 5.59564 13.2454 23.8177
1 5.58085 11.3326 24.2116
1 5.5937 13.2466 25.8035
2 5.56899 11.3313 26.1809
1 3.66349 11.3381 26.6157
1 5.594 11.3277 28.1547
2 3.67295 15.1627 -0.0619909
1 3.69274 17.0862 0.347768
1 3.57072 15.1841 1.88898
2 3.68341 17.0735 2.32809
1 5.60209 17.0908 2.73223
1 3.6814 17.0297 4.32239
2 5.59811 17.0679 4.71976
1 5.59958 15.1682 5.16958
1 5.57328 17.0715 6.71213
2 5.57467 15.1448 7.11247
1 3.62915 15.0731 7.50522
1 5.59177 15.1408 9.07703
2 3.68336 15.1283 9.49576
1 3.71385 17.0169 9.81582
1 3.6818 15.166 11.4728
2 3.70019 17.1337 11.8501
1 5.62896 16.9308 12.3232
1 3.68601 17.12 13.8685
2 5.60842 17.055 14.2677
1 5.58596 15.1561 14.6972
1 5.65767 17.1102 16.2507
2 5.60267 15.1816 16.656
1 3.69938 15.1725 17.0712
1 5.64227 15.2169 18.6462
2 3.70184 15.1736 19.0461
1 3.71891 17.0891 19.4477
1 3.67595 15.1641 21.0244
2 3.6874 17.0742 21.436
1 5.6026 17.0624 21.8722
1 3.674 17.0708 23.4166
2 5.57255 17.0697 23.8457
1 5.59002 15.153 24.2205
1 5.5697 17.0582 25.8027
2 5.59997 15.1553 26.214
1 3.68618 15.1559 26.6157
1 5.61412 15.1332 28.2111
2 3.6724 19.0978 -0.0227426
1 4.4314 20.9023 0.393105
1 3.67346 18.9689 1.95969
2 3.68216 20.9 2.24239
1 5.62166 20.8928 2.78424
1 3.6862 20.9011 4.31504
2 5.58674 20.8974 4.7187
1 5.60156 18.9871 5.13582
1 5.53089 20.946 6.7011
2 5.58927 19.0023 7.09558
1 3.68602 19.001 7.51221
1 5.61796 18.988 9.03137
2 3.70734 18.9787 9.53176
1 3.64086 20.9195 9.92449
1 4.53924 19.0039 11.4604
2 3.55416 20.7371 11.9148
1 5.64372 21.0253 12.3405
1 3.71417 20.8123 13.898
2 5.61323 20.9206 14.2767
1 5.60967 18.9826 14.675
1 5.67092 20.8503 16.276
2 5.35015 18.9752 16.5678
1 3.60114 18.9892 17.1185
1 5.87581 18.9067 18.4075
2 3.67489 18.9803 19.0489
1 3.72983 20.8845 19.4489
1 3.70713 18.9858 21.0108
2 3.69837 20.9091 21.4255
1 5.61165 20.8724 21.8284
1 3.69935 20.8712 23.3909
2 5.59372 20.902 23.8237
1 5.585 18.9846 24.2258
1 5.57722 20.9041 25.8068
2 5.54735 18.9714 26.2067
1 3.67759 19.003 26.6323
1 5.60677 18.8633 28.1852
2 3.67574 22.7035 -0.025932
1 3.63906 24.7291 0.361623
1 3.68692 22.8302 1.95598
2 3.67669 24.7265 2.33302
1 5.59187 24.729 2.7345
1 3.68256 24.7213 4.31289
2 5.57794 24.7291 4.71371
1 5.59096 22.8138 5.12807
1 5.52148 24.6822 6.70892
2 5.84835 22.8142 7.0158
1 5.41455 22.8123 8.86586
2 3.69429 22.8095 9.67702
1 3.67203 24.7161 9.92277
1 3.84798 22.8479 11.521
2 3.69004 24.7314 11.9088
1 5.60587 24.7999 12.3141
1 3.62959 24.6181 13.8374
2 5.58868 24.8387 14.3
1 5.59267 22.8159 14.7121
1 5.58006 24.7037 16.2795
2 5.60409 22.7967 16.6682
1 3.6943 22.7809 17.0843
1 5.60133 22.8274 18.6446
2 3.69903 22.8028 19.0501
1 3.68713 24.7223 19.4494
1 3.75657 22.8507 21.0409
2 3.45323 24.7273 21.3345
1 3.84048 24.7587 23.1987
2 5.5678 24.7285 24.0062
1 5.57712 22.8231 24.2408
1 5.61241 24.7219 25.8699
2 5.58372 22.8094 26.2251
1 3.65236 22.8181 26.6229
1 5.62545 22.9204 28.1624
2 7.52523 -0.0352178 -0.0187683
1 8.24966 1.76631 0.375625
1 7.50299 -0.166072 1.95829
2 7.4975 1.76317 2.24493
1 9.40085 1.76418 2.77999
1 7.50267 1.76543 4.32859
2 9.52752 1.76835 4.7181
1 9.31252 -0.18144 5.18831
1 9.48891 1.74976 6.71441
2 9.40297 -0.149827 7.12879
1 7.46676 -0.166155 7.48927
1 9.31575 -0.146941 9.06536
2 7.44936 -0.149261 9.49731
1 7.46852 1.77718 9.89841
1 7.51034 -0.143555 11.4779
2 7.50498 1.78188 11.8793
1 9.43264 1.75613 12.2603
1 7.54594 1.88156 13.831
2 9.43738 1.77799 14.2552
1 9.43229 -0.147832 14.6699
1 9.47581 1.72089 16.254
2 9.15596 -0.147845 16.5694
1 7.41666 -0.144173 17.1466
1 9.61626 -0.150469 18.4356
2 7.49309 -0.140093 19.0486
1 7.54219 1.74521 19.4598
1 7.4605 -0.180111 21.0278
2 7.48789 1.75332 21.4405
1 9.40315 1.74758 21.8301
1 7.49352 1.76994 23.418
2 9.41029 1.75884 23.8202
1 9.377 -0.164427 24.2111
1 9.42267 1.76624 25.7998
2 9.41892 -0.162829 26.1953
1 7.52146 -0.100823 26.6306
1 9.46836 -0.260032 28.1454
2 7.50139 3.56292 -0.0410699
1 7.4993 5.56111 0.329358
1 7.49496 3.68913 1.94835
2 7.49841 5.55354 2.33695
1 9.4218 5.58467 2.75353
1 7.48787 5.61796 4.31821
2 9.40589 5.59902 4.73192
1 9.29051 3.71101 5.17969
1 9.42256 5.60674 6.72259
2 9.40533 3.6769 7.12447
1 7.49022 3.67445 7.53815
1 9.42221 3.65913 9.09967
2 7.48767 3.6888 9.49984
1 7.50515 5.59049 9.89895
1 7.50496 3.68918 11.4705
2 7.50122 5.60026 11.8837
1 9.41677 5.59021 12.2892
1 7.51354 5.59448 13.8659
2 9.41342 5.60878 14.2729
1 9.4388 3.68328 14.6901
1 9.4219 5.60052 16.2468
2 9.43103 3.66684 16.6576
1 7.51978 3.66645 17.059
1 9.4229 3.68015 18.641
2 7.51585 3.66897 19.0453
1 7.5125 5.58886 19.4495
1 7.51302 3.66919 21.0243
2 7.55268 5.58752 21.4362
1 9.42769 5.59188 21.8393
1 7.52615 5.59062 23.4499
2 9.4305 5.59564 23.8229
1 9.41919 3.67795 24.2212
1 9.41928 5.60159 25.7942
2 9.42605 3.69176 26.1943
1 7.49976 3.63872 26.6088
1 9.44473 3.81756 28.1362
2 7.50365 7.50617 -0.0432716
1 7.50095 9.61247 0.562632
1 7.50899 7.41336 1.89536
2 7.49642 9.1759 2.42085
1 9.36875 9.48262 2.73567
1 7.49766 9.4204 4.31945
2 9.41746 9.43014 4.72915
1 9.40445 7.5143 5.11884
1 9.41788 9.42027 6.7075
2 9.41235 7.51436 7.11201
1 7.48672 7.49847 7.50832
1 9.41079 7.50366 9.09417
2 7.47861 7.47891 9.46353
1 7.47456 9.4092 9.80314
1 7.50238 7.51379 11.4438
2 7.5007 9.4157 11.6794
1 9.22573 9.42021 12.4998
2 9.66767 9.42185 14.3582
1 9.35459 7.55102 14.6716
1 9.41547 9.41964 16.2527
2 9.40626 7.50413 16.6664
1 7.50344 7.5083 17.0694
1 9.42038 7.50297 18.6429
2 7.50619 7.50162 19.0473
1 7.50446 9.40705 19.4555
1 7.51852 7.50275 21.0293
2 7.50436 9.40591 21.4411
1 9.42188 9.418 21.838
1 7.50215 9.41071 23.4178
2 9.41927 9.42116 23.8196
1 9.42032 7.5116 24.2242
1 9.41978 9.42109 25.8037
2 9.41443 7.50936 26.2106
1 7.50024 7.52885 26.6321
1 9.40016 7.54131 28.2018
2 7.49792 11.3433 -0.243971
1 7.49756 13.094 0.528061
2 7.4031 13.5066 2.43386
1 9.33987 13.1514 2.73604
1 7.53085 13.2764 4.37057
2 9.42411 13.2375 4.7328
1 9.42506 11.3309 5.13262
1 9.42848 13.249 6.71013
2 9.41755 11.3325 7.1115
1 7.5021 11.344 7.5022
1 9.41601 11.3326 9.09434
2 7.49964 11.3468 9.46436
1 7.50307 13.2474 9.89515
1 7.50164 11.3181 11.4436
2 7.5099 13.2355 11.8801
1 9.4217 13.2394 12.2967
1 7.50782 13.2502 13.8652
2 9.41644 13.2375 14.279
1 9.36023 11.2962 14.675
1 9.43441 13.2542 16.2618
2 9.4079 11.3377 16.6654
1 7.507 11.331 17.0663
1 9.42188 11.3228 18.642
2 7.50559 11.2835 19.0521
1 7.50659 13.1488 19.4794
1 7.50328 11.3084 21.0634
2 7.50587 13.2509 21.4201
1 9.40525 13.2832 21.8269
1 7.50536 13.2726 23.3936
2 9.41349 13.2494 23.8212
1 9.42545 11.3359 24.2127
1 9.42676 13.2509 25.8076
2 9.43589 11.3345 26.1799
1 7.50302 11.335 26.526
1 9.40553 11.3314 28.158
2 7.52976 15.1529 -0.0440321
1 7.55432 17.1046 0.308943
1 7.63324 15.2752 1.88604
2 7.53862 17.1317 2.32527
1 9.48189 17.183 2.73863
1 7.51593 17.0684 4.30188
2 9.41839 17.0859 4.73016
1 9.43219 15.1647 5.10381
1 9.41505 17.0696 6.70606
2 9.41928 15.1594 7.10174
1 7.50538 15.1587 7.51336
1 9.42037 15.1572 9.08913
2 7.50602 15.1602 9.49382
1 7.50084 17.0738 9.90363
1 7.53266 15.1469 11.471
2 7.5139 17.0627 11.8854
1 9.41636 17.0613 12.2868
1 7.51842 17.0814 13.8753
2 9.4191 17.0712 14.2604
1 9.42589 15.1652 14.682
1 9.3543 17.111 16.2469
2 9.4291 15.1928 16.6483
1 7.51132 15.1531 17.065
1 9.38265 15.2108 18.6346
2 7.51202 14.9078 18.9606
1 7.50821 15.3466 20.8199
2 7.50315 17.0563 21.6724
1 9.40229 17.0676 21.8563
1 7.51047 17.0591 23.5405
2 9.45203 17.0636 23.8395
1 9.40237 15.16 24.2407
1 9.50797 17.121 25.8158
2 9.4281 15.1774 26.2092
1 7.51716 15.1503 26.6319
1 9.42772 15.1575 28.1969
2 7.52781 18.9908 -0.0868691
1 7.54627 20.8886 0.327559
1 7.5318 19.001 1.89365
2 7.52445 20.8948 2.33111
1 9.46177 20.8285 2.73401
1 7.5209 20.9098 4.32854
2 9.4194 20.8857 4.731
1 9.41985 18.9839 5.1298
1 9.43035 20.8946 6.70526
2 9.42335 18.9839 7.10827
1 7.51304 19.0041 7.48955
1 9.41402 18.9909 9.09054
2 7.50449 18.9901 9.49378
1 7.47272 20.9109 9.89122
1 7.53027 18.9893 11.4835
2 7.51636 20.9094 11.8836
1 9.42281 20.9104 12.2954
1 7.52179 20.891 13.8815
2 9.41559 20.8973 14.2783
1 9.42994 18.9848 14.6796
1 9.3715 20.8401 16.2878
2 9.69374 18.965 16.5718
1 9.16284 18.9075 18.4075
2 7.51781 19.2506 19.1675
1 7.51386 21.02 19.5218
1 7.50003 18.8173 20.9426
2 7.49348 20.9361 21.4602
1 9.38614 20.8874 21.8033
1 7.50458 20.8863 23.4211
2 9.42031 20.9114 23.8015
1 9.38213 18.9872 24.1914
1 9.50405 20.8541 25.7944
2 9.165 18.9883 26.0828
1 7.41328 19.0054 26.6149
1 9.58904 18.9848 27.9416
2 7.51761 22.8209 -0.0610204
1 7.53996 24.7342 0.365648
1 7.52246 22.802 1.92259
2 7.50464 24.718 2.341
1 9.40868 24.7391 2.76643
1 7.48731 24.6909 4.3359
2 9.40676 24.7193 4.73434
1 9.42503 22.8067 5.11865
1 9.47066 24.7313 6.72471
2 9.46383 22.811 7.1094
1 7.60641 22.8147 7.53649
1 9.44238 22.8312 9.13081
2 7.49737 22.811 9.47873
1 7.45468 24.7094 9.89394
1 7.5062 22.8167 11.4444
2 7.50869 24.7172 11.8821
1 9.42944 24.7438 12.2639
1 7.54974 24.5961 13.8396
2 9.43253 24.7064 14.2643
1 9.44011 22.7955 14.7092
1 9.47142 24.7685 16.2571
2 9.42036 22.8118 16.6667
1 7.51864 22.8285 17.0637
1 9.41898 22.8361 18.6523
2 7.50184 22.8674 19.0452
1 7.54417 24.7519 19.4559
1 7.42686 22.8945 21.0737
2 7.75558 24.7431 21.359
1 9.51464 24.7173 21.8681
1 7.30436 24.7339 23.2067
2 9.40804 24.7198 23.807
1 9.36072 22.819 24.2224
1 9.38286 24.7106 25.7712
2 9.42922 22.7915 26.2041
1 7.52245 22.7786 26.5961
1 9.42468 22.7598 28.1923
2 11.4527 -0.146816 -0.0960515
1 11.223 1.80677 0.382254
1 11.3723 -0.151464 1.86155
2 11.3171 1.77065 2.42606
1 13.2612 1.78481 2.70593
1 11.338 2.53175 4.2791
2 13.1348 1.78652 4.6729
1 13.3623 -0.169987 5.06499
1 13.2026 1.75799 6.66993
2 13.2578 -0.147896 6.9195
1 11.5264 -0.152656 7.72697
2 11.0779 -0.145285 9.57884
1 11.4002 1.72398 9.89028
1 11.3131 -0.134253 11.4719
2 11.3468 1.76966 11.8861
1 13.2474 1.77149 12.2902
1 11.3341 1.77328 13.8614
2 13.2362 1.76954 14.265
1 13.2441 -0.133985 14.6879
1 13.1803 1.7264 16.264
2 13.4941 -0.139435 16.5789
1 13.0608 -0.144313 18.4339
2 11.3386 -0.145752 19.2457
1 11.3309 1.75769 19.4801
1 11.3448 -0.145219 21.1183
2 11.3244 1.78423 21.4534
1 13.2423 1.77055 21.8285
1 11.3184 1.77995 23.4067
2 13.2317 1.76413 23.7971
1 13.2603 -0.158469 24.1979
1 13.1264 1.74946 25.7121
2 13.2409 -0.15305 26.2889
1 11.3156 -0.158773 26.571
1 13.2531 0.608641 28.1324
2 11.3287 3.70182 -0.0597786
1 11.3413 5.6254 0.350178
1 11.3294 3.71558 1.88969
2 11.3327 5.60326 2.34146
1 13.2414 5.60006 2.75173
1 11.3309 5.6103 4.33442
2 13.2556 5.60373 4.72979
1 13.372 3.71956 5.16345
1 13.2355 5.60443 6.71985
2 13.2564 3.67628 7.1123
1 11.3321 3.68774 7.51127
1 13.2445 3.67893 9.08896
2 11.3396 3.6643 9.49403
1 11.3343 5.59249 9.90406
1 11.3279 3.67248 11.4699
2 11.3265 5.5938 11.8826
1 13.2382 5.58803 12.2866
1 11.3253 5.60906 13.8704
2 13.2425 5.58508 14.2725
1 13.2466 3.67041 14.6834
1 13.2428 5.58574 16.256
2 13.234 3.66226 16.6592
1 11.3315 3.67891 17.0687
1 13.2417 3.67952 18.6428
2 11.3324 3.67442 19.0496
1 11.333 5.59395 19.4479
1 11.3263 3.6832 21.0293
2 11.3338 5.59377 21.4285
1 13.2412 5.56412 21.8456
1 11.3305 5.59469 23.4079
2 13.2396 5.60212 23.8151
1 13.2951 3.69411 24.2191
1 13.1368 5.63564 25.7672
2 13.3628 3.67742 26.2289
1 11.3559 3.66803 26.6083
1 13.2311 3.70092 28.22
2 11.3305 7.51805 -0.0556081
1 11.3367 9.41844 0.34596
1 11.3123 7.51898 1.93733
2 11.3123 9.42559 2.33249
1 13.2398 9.42319 2.73916
1 11.3212 9.41452 4.30611
2 13.2396 9.41957 4.71926
1 13.2483 7.51066 5.12902
1 13.2393 9.42046 6.70357
2 13.2419 7.51163 7.11305
1 11.3282 7.51575 7.51793
1 13.2416 7.51157 9.09678
2 11.3277 7.50581 9.49911
1 11.3014 9.41898 9.9214
1 11.2981 7.51868 11.4885
2 11.3244 9.41883 11.8951
1 13.2657 9.41738 12.25
1 11.425 9.41609 13.8363
2 13.2915 9.4066 14.2576
1 13.2574 7.49455 14.674
1 13.2489 9.40646 16.2454
2 13.244 7.49913 16.653
1 11.3231 7.51312 17.0464
1 13.2357 7.50556 18.6243
2 11.331 7.5077 19.0413
1 11.3343 9.41958 19.4512
1 11.3347 7.5072 21.028
2 11.3385 9.42226 21.431
1 13.25 9.42441 21.839
1 11.3352 9.4217 23.4122
2 13.2471 9.4274 23.817
1 13.2468 7.51966 24.2148
1 13.2424 9.4263 25.8022
2 13.2503 7.52323 26.2048
1 11.3221 7.5297 26.6214
1 13.2539 7.501 28.1777
2 11.3299 11.3199 -0.0697711
1 11.3305 13.218 0.318213
1 11.3279 11.319 1.91672
2 11.3022 13.1828 2.32745
1 13.2414 13.2297 2.73402
1 11.3173 13.245 4.29789
2 13.2345 13.2458 4.71836
1 13.2369 11.3324 5.12532
1 13.243 13.2469 6.70216
2 13.2436 11.3323 7.11016
1 11.3316 11.331 7.51586
1 13.2411 11.3305 9.09856
2 11.3295 11.3306 9.49937
1 11.3363 13.2412 9.90679
1 11.3026 11.3195 11.492
2 11.331 13.24 11.8888
1 13.2437 13.269 12.3087
1 11.3405 13.2594 13.8829
2 13.2473 13.2529 14.2813
1 13.2578 11.315 14.6452
1 13.2422 13.1536 16.2251
2 13.244 11.2859 16.6496
1 11.3211 11.3135 17.0481
1 13.2349 11.3295 18.6261
2 11.3302 11.3321 19.0421
1 11.3224 13.2554 19.4273
1 11.3299 11.3413 21.0251
2 11.3297 13.2512 21.43
1 13.2417 13.2798 21.858
1 11.3234 13.2341 23.4145
2 13.252 13.2573 23.8272
1 13.2432 11.3406 24.225
1 13.2569 13.2466 25.8115
2 13.2612 11.3331 26.2042
1 11.3394 11.3303 26.6038
1 13.2536 11.3248 28.1779
2 11.3217 15.1634 -0.0300333
1 11.328 17.2355 0.590138
1 11.3038 15.0414 1.91556
2 11.3303 16.7952 2.44086
1 13.187 17.1429 2.72447
1 11.3333 17.062 4.32709
2 13.2424 17.0794 4.72866
1 13.2339 15.1624 5.11344
1 13.2514 17.069 6.70954
2 13.2508 15.1586 7.10279
1 11.3334 15.1582 7.51032
1 13.247 15.1561 9.08468
2 11.3354 15.155 9.49514
1 11.3192 17.069 9.88704
1 11.3252 15.1533 11.481
2 11.3115 17.0674 11.857
1 13.2348 17.0421 12.2001
1 11.3397 17.0826 13.8481
2 13.2502 17.076 14.07
1 13.2451 15.3488 14.8846
2 13.2331 14.9126 16.7428
1 11.3582 15.2379 17.0581
1 13.2329 15.1653 18.6343
2 11.3074 15.1811 19.0453
1 11.2957 17.0863 19.4488
1 11.3288 15.1547 21.0092
2 11.3296 17.0553 21.4269
1 13.2403 17.082 21.8426
1 11.3207 16.9762 23.3661
2 13.323 17.2176 23.8432
1 13.1814 15.1622 24.2601
1 13.2639 17.0719 25.8398
2 13.2337 15.1655 26.2213
1 11.3285 15.1839 26.6452
1 13.2154 15.185 28.2155
2 11.3292 18.9823 -0.0567451
1 11.3241 20.728 0.590888
2 11.326 21.1608 2.44261
1 13.1852 20.821 2.7206
1 11.328 20.8953 4.32408
2 13.2362 20.8717 4.72243
1 13.2207 18.9725 5.13489
1 13.2404 20.8955 6.6928
2 13.2403 18.9852 7.10663
1 11.3289 18.9848 7.5129
1 13.2364 18.9857 9.07873
2 11.3298 18.9866 9.4968
1 11.3346 20.8995 9.91099
1 11.3025 18.9762 11.4749
2 11.3275 20.8898 11.8924
1 13.1998 20.7458 12.3644
1 11.3313 20.8695 13.9063
2 13.2446 20.8791 14.2938
1 13.2495 18.7927 14.9023
1 13.2488 21.0005 16.2301
2 13.2915 19.2442 16.7609
1 11.4594 18.9045 17.0934
1 13.2643 18.9919 18.6702
2 11.3289 18.963 19.0452
1 11.2843 20.8657 19.4151
1 11.3007 18.9818 21.0175
2 11.3204 20.901 21.4098
1 13.2372 20.8538 21.8376
1 11.2963 21.0142 23.3589
2 13.1981 20.8474 23.8532
1 13.8065 19.1074 24.2644
1 13.1888 20.9228 25.896
2 13.4985 18.998 26.0944
1 13.0708 18.9866 27.9529
2 11.321 22.7811 -0.0284275
1 11.2182 24.6914 0.35218
1 11.332 22.9086 1.92466
2 11.3148 24.7765 2.33607
1 13.2417 24.7144 2.71902
1 11.3303 24.7205 4.32801
2 13.2525 24.7103 4.68438
1 13.2301 22.7975 5.09852
1 13.2359 24.7278 6.66526
2 13.2047 22.8136 7.09153
1 11.3237 22.8044 7.50627
1 13.1845 22.8046 9.06416
2 11.33 22.8291 9.51374
1 11.3969 24.7727 9.90288
1 11.3174 22.8196 11.4907
2 11.3365 24.7382 11.8934
1 13.2115 24.8586 12.3246
1 11.3187 24.7127 13.8766
2 13.2223 24.7501 14.2707
1 13.2346 22.8449 14.6515
1 13.1726 24.7814 16.2612
2 13.2323 22.8777 16.6507
1 11.3193 22.8052 17.0679
1 13.2356 22.8108 18.6403
2 11.3281 22.8122 19.0427
1 11.3395 24.7365 19.4816
1 11.3461 22.7971 21.0055
2 11.382 24.702 21.4658
1 13.2613 24.7158 21.8448
1 11.3532 24.7023 23.4555
2 13.2684 24.7116 23.8173
1 13.2456 22.7805 24.2352
1 13.2442 24.702 25.7513
2 13.2332 22.8205 26.2278
1 11.3253 22.8075 26.6417
1 13.2269 22.7762 28.2247
2 15.0447 -0.143262 -0.0780593
1 15.2929 1.78733 0.433832
1 15.1249 -0.154147 1.91935
2 15.1711 1.77021 2.35349
1 17.0702 1.78451 2.77487
1 15.1507 1.77296 4.31975
2 17.0684 1.75544 4.73748
1 17.039 -0.157031 5.16403
1 17.0407 1.74844 6.71574
2 17.0649 -0.150828 7.13213
1 14.9838 -0.127476 7.71782
1 17.1719 -0.142636 9.08306
2 15.4065 -0.124781 9.57509
1 15.0918 1.7294 9.89797
1 15.1437 -0.145194 11.4628
2 15.1493 1.7619 11.8975
1 17.0713 1.74056 12.275
1 15.156 1.75125 13.8789
2 17.0725 1.75804 14.2656
1 17.1037 -0.152701 14.6841
1 17.0805 1.76782 16.2513
2 17.1199 -0.139749 16.6685
1 15.2543 -0.146763 17.0895
1 17.0924 -0.146575 18.6691
2 15.1517 -0.145387 19.0329
1 15.1258 1.7507 19.4381
1 15.1265 -0.144246 21.0067
2 15.1597 1.76562 21.4282
1 17.0775 1.7545 21.8302
1 15.1515 1.77971 23.4018
2 17.0806 1.76313 23.8043
1 16.9443 -0.125314 24.2412
1 17.2118 1.74419 25.7646
2 17.0668 -0.150211 26.2007
1 15.1714 -0.164727 26.5837
1 17.0498 -0.1447 28.1702
2 15.1688 3.68614 -0.142174
1 15.1702 5.62066 0.399547
1 15.1532 3.69626 1.94893
2 15.1596 5.59928 2.34465
1 17.0781 5.59362 2.74334
1 15.17 5.61547 4.31557
2 17.0776 5.5913 4.72443
1 17.0758 3.674 5.13071
1 17.063 5.58936 6.70419
2 17.0627 3.67302 7.10848
1 15.1603 3.67747 7.52707
1 17.0634 3.65294 9.09776
2 15.1506 3.66238 9.50236
1 15.1547 5.58699 9.89903
1 15.1648 3.66867 11.4756
2 15.1513 5.58905 11.8788
1 17.0572 5.60043 12.2729
1 15.1519 5.58389 13.862
2 17.0566 5.58157 14.2677
1 17.0363 3.66681 14.6746
1 17.0696 5.59351 16.2499
2 17.0558 3.67908 16.65
1 15.1443 3.65761 17.0537
1 17.0543 3.67053 18.6339
2 15.1507 3.66945 19.0408
1 15.1646 5.57981 19.4378
1 15.1627 3.67461 21.0232
2 15.1507 5.58343 21.4335
1 17.0721 5.59721 21.8426
1 15.1771 5.64137 23.4266
2 17.0843 5.60406 23.8194
1 17.021 3.66227 24.1933
1 17.2138 5.52177 25.7386
2 16.9604 3.64364 26.2251
1 15.1584 4.44273 26.6619
1 17.1011 3.70235 28.2089
2 15.1551 7.51511 -0.0407918
1 15.1365 9.41165 0.361877
1 15.1546 7.5179 1.9489
2 15.1557 9.42501 2.33998
1 17.0683 9.41408 2.74052
1 15.156 9.42396 4.31924
2 17.0729 9.4143 4.72051
1 17.0732 7.50544 5.12638
1 17.0699 9.41697 6.70671
2 17.0658 7.5031 7.10681
1 15.1548 7.50583 7.51323
1 17.0649 7.50546 9.08938
2 15.1559 7.50511 9.49584
1 15.1649 9.42366 9.89739
1 15.1504 7.50213 11.4742
2 15.1648 9.4192 11.8724
1 17.0601 9.39619 12.2738
1 15.1674 9.42323 13.8588
2 17.0666 9.43105 14.2679
1 17.0492 7.50503 14.6664
1 17.0751 9.41898 16.2465
2 17.0738 7.50623 16.6605
1 15.1595 7.50508 17.0622
1 17.0577 7.50053 18.6592
2 15.1411 7.50291 19.0421
1 15.187 9.42055 19.4505
1 15.0235 7.46972 20.992
2 15.2619 9.42216 21.4306
1 17.0716 10.1834 21.8478
1 15.1411 9.42212 23.4131
2 17.0707 9.38734 23.5719
1 17.0643 7.69211 24.4655
2 17.0782 7.26274 26.3085
1 15.2013 7.57617 26.6091
1 17.0715 7.49947 28.1991
2 15.1512 11.3109 -0.0511299
1 15.1512 13.2439 0.327336
1 15.1642 11.3357 1.92524
2 15.1587 13.2462 2.32424
1 17.056 13.2533 2.78522
1 15.1408 13.2455 4.31336
2 17.0626 13.2443 4.7253
1 17.0845 11.3204 5.11961
1 16.9385 13.2095 6.66991
2 17.0613 11.3243 7.10996
1 15.1502 11.3052 7.52506
1 17.0842 11.3754 9.09741
2 15.1618 11.3351 9.4993
1 15.1483 13.2436 9.90379
1 15.1778 11.3427 11.4862
2 15.1717 13.254 11.8866
1 17.1062 13.3001 12.2924
1 15.1487 13.2799 13.8675
2 17.0607 13.2634 14.2841
1 17.0511 11.3534 14.6737
1 17.0487 13.2546 16.2651
2 17.0687 11.3345 16.6597
1 15.1611 11.316 17.0643
1 17.0698 11.3385 18.6491
2 15.1461 11.3318 19.0412
1 15.1573 13.2526 19.4083
1 15.0313 11.3771 20.9928
2 15.1453 13.2632 21.4216
1 17.067 13.2269 21.852
1 15.1934 13.1843 23.4245
2 17.0612 12.8668 23.7536
1 17.0782 11.0989 24.484
1 17.0622 13.4717 25.5859
2 17.0693 11.6872 26.2794
1 15.192 11.3442 26.5901
1 17.0352 11.2227 28.1254
2 15.1224 15.1775 -0.0249936
1 15.0924 17.0942 0.347555
1 15.1237 15.1635 1.9374
2 15.1237 17.0823 2.32141
1 17.0385 17.0828 2.70805
1 15.1304 17.0686 4.28786
2 17.0081 17.0863 4.709
1 17.0906 15.161 5.13247
1 16.933 17.1142 6.66221
2 17.1729 15.1648 7.10919
1 15.1635 15.1573 7.51496
1 17.0592 15.1528 9.08836
2 15.1599 15.1527 9.49179
1 15.1738 17.0607 9.87571
1 15.1542 15.1546 11.4769
2 15.1811 17.0587 11.8485