1749
Atoms. Timestep: 994
2 26.9611 -0.444118 -0.152878
1 26.9534 1.51336 0.267312
1 -0.459869 26.9513 1.82706
2 26.9394 1.50877 2.24977
1 1.50072 1.50842 2.67009
1 -0.454656 1.48449 4.23187
2 1.50248 1.41008 4.64717
1 1.50403 26.9149 5.07066
1 1.51366 1.45083 6.66806
2 1.50486 -0.468479 7.06317
1 26.943 26.9633 7.46204
1 1.51146 26.957 9.03966
2 26.9439 -0.339084 9.43329
1 26.9554 1.5284 9.85282
1 -0.45048 27.0252 11.4792
2 -0.447203 1.53618 11.8757
1 1.5091 1.5203 12.2854
1 -0.437644 1.53188 13.8593
2 1.525 1.58425 14.2696
1 1.51764 -0.277139 14.7663
1 1.5076 1.54718 16.2976
2 1.52378 26.9651 16.7018
1 27.0044 26.9574 17.0746
1 1.54032 26.9852 18.6929
2 -0.351701 -0.351934 19.0937
1 26.9644 1.54033 19.5205
1 26.9593 26.9952 21.1152
2 -0.444158 1.52921 21.4991
1 1.50849 1.51747 21.9047
1 -0.44277 1.51476 23.4783
2 1.50416 1.51391 23.8878
1 1.50809 26.9601 24.2946
1 1.50158 1.51334 25.8714
2 1.50331 -0.434441 26.2849
1 26.9572 26.9509 26.7029
1 1.50189 26.9571 28.2803
2 26.9469 3.46584 28.6979
1 -0.473469 5.42106 0.244716
1 -0.457416 3.46403 1.83339
2 -0.476053 5.41892 2.21999
1 1.49665 5.42384 2.33139
1 26.7607 5.42361 4.15571
1 1.51132 3.2782 5.13762
1 1.50861 5.42001 6.97182
2 1.52278 3.44177 7.0675
1 26.9951 3.45977 7.42813
1 1.53602 3.4336 9.04604
2 -0.357557 3.47654 9.44627
1 26.9684 5.42536 9.86449
1 26.9608 3.43482 11.3877
2 -0.375954 5.42333 11.9349
1 1.50998 5.40495 12.1733
1 26.9688 6.18144 13.7767
2 1.31236 5.42702 14.3777
1 1.61513 3.43707 14.7179
1 2.24741 5.41366 16.251
2 1.52089 3.61218 16.6713
1 26.8994 3.34614 17.132
1 1.50013 3.52494 18.6621
2 -0.453646 3.46875 19.0863
1 -0.46291 5.42386 19.4991
1 -0.437514 3.47945 21.0765
2 26.9554 5.42723 21.4819
1 1.50667 5.42095 21.9021
1 26.9549 5.42439 23.4735
2 1.50633 5.41864 23.8885
1 1.50155 3.46667 24.3084
1 1.50204 5.41887 25.8726
2 1.50144 3.46462 26.2908
1 26.9429 3.46384 26.71
1 1.49819 3.47806 28.2722
2 26.9395 7.37289 28.6958
1 26.93 9.32166 0.266056
1 -0.461931 7.37277 1.83155
2 26.934 9.32649 2.24873
1 1.48561 9.33223 2.65267
1 -0.462731 9.34102 4.23227
2 1.48598 9.4134 4.63793
1 1.49274 7.55054 5.14539
1 1.48845 9.37442 6.6721
2 1.49855 7.39312 7.07946
1 -0.453324 7.37835 7.46616
1 1.50394 7.3925 9.05091
2 -0.45026 7.38182 9.44209
1 -0.464719 9.35463 9.85829
1 26.959 7.41857 11.3779
2 26.9643 9.33554 11.8562
1 1.50964 9.327 12.2813
1 -0.422187 9.35945 13.8588
2 1.51871 9.3422 14.2824
1 1.59678 7.4379 14.7262
1 1.46671 9.3713 16.2603
2 1.50605 7.22079 16.6632
1 26.8923 7.49754 17.1313
1 1.47235 7.32525 18.658
2 -0.466912 7.38979 19.0864
1 26.9346 9.33577 19.5196
1 26.9528 7.38034 21.0675
2 -0.450298 9.33442 21.4932
1 1.50101 9.32853 21.9066
1 26.9459 9.33191 23.4722
2 1.50257 9.32548 23.8884
1 1.50594 7.37215 24.3077
1 1.48497 9.32529 25.8708
2 1.5005 7.37208 26.2922
1 26.9421 7.37367 26.7123
1 1.49947 7.37578 28.2754
2 -0.472677 11.274 28.7027
1 26.9381 13.212 0.266356
1 26.9374 11.2731 1.83791
2 -0.454048 13.229 2.25225
1 1.48807 13.251 2.66825
1 -0.455676 13.2285 4.23618
2 1.4886 13.2445 4.65685
1 1.47995 11.2966 5.03349
1 1.40839 13.1797 6.61725
2 1.4718 11.2842 7.03489
1 -0.517526 11.2619 7.44918
1 1.32211 11.3023 8.96962
2 26.8454 11.2909 9.4662
1 -0.476007 13.2291 9.89156
1 -0.451379 11.2862 11.4532
2 26.9434 13.2292 11.8745
1 1.48936 13.2528 12.2945
1 26.9376 13.2474 13.8611
2 1.48792 13.2519 14.2793
1 1.49067 11.3006 14.6919
1 1.48204 13.2514 16.2624
2 1.40514 11.297 16.6748
1 26.9135 11.3011 17.1023
1 1.45038 11.291 18.7026
2 -0.465133 11.2879 19.0979
1 26.9422 13.2406 19.5031
1 26.9379 11.2885 21.0793
2 -0.451554 13.2388 21.485
1 1.50136 13.231 21.8926
1 -0.45787 13.2231 23.4622
2 1.49899 13.2213 23.8707
1 1.49004 11.2749 24.2964
1 1.47341 13.2172 25.8469
2 1.40642 11.2823 26.2832
1 26.909 11.2783 26.7069
1 1.44666 11.279 28.3109
2 -0.386929 15.181 -0.151947
1 26.9372 17.1584 0.267327
1 26.9467 15.1556 1.7745
2 26.9427 17.149 2.32356
1 1.5294 17.1463 2.61647
1 -0.392242 17.8957 4.12853
2 1.35231 17.15 4.62302
1 1.64767 15.158 5.13749
1 1.38075 17.2091 6.59222
2 1.67408 15.1882 7.09791
1 -0.39487 15.0622 7.51992
1 1.50442 15.21 9.08183
2 26.9476 15.1547 9.45825
1 26.948 17.0688 9.83403
1 26.9398 15.1639 11.4606
2 -0.452179 17.0445 11.8904
1 1.5033 17.1471 12.31
1 -0.455283 17.125 13.8705
2 1.52203 17.1378 14.286
1 1.5014 15.2031 14.6973
1 1.5001 17.1377 16.2809
2 1.50159 15.1978 16.6827
1 -0.448177 15.1941 17.1002
1 1.50592 15.1909 18.6644
2 -0.444947 15.1827 19.0824
1 26.958 17.1237 19.495
1 26.9516 15.1824 21.0664
2 -0.376471 17.1372 21.4814
1 1.50776 17.1317 21.8725
1 26.9569 17.1583 23.4487
2 1.50903 17.1604 23.9884
1 1.49994 15.1292 24.2345
1 2.25665 16.9544 25.7746
2 1.44764 15.2261 26.255
1 26.9255 15.0457 26.7254
1 1.49279 15.2477 28.3026
2 -0.459974 19.1267 28.7177
1 -0.436191 21.1025 0.251476
1 -0.452867 19.1528 1.78911
2 26.9683 21.0809 2.24417
1 1.5108 21.0586 2.67398
1 -0.420822 21.099 4.24557
2 1.5264 21.0947 4.66127
1 1.62398 19.1868 5.10631
1 1.52595 21.1077 6.65348
2 1.5203 19.1396 7.05945
1 -0.408772 19.2183 7.50008
1 1.53103 19.0879 9.05196
2 26.9537 18.9943 9.42827
1 -0.45732 20.8723 9.64795
1 26.9431 18.8795 11.3601
1 1.7064 21.0628 12.335
1 -0.407646 21.7635 14.0762
2 1.35727 20.9797 14.2617
1 1.63852 19.0492 14.7263
1 1.46495 21.0227 16.3021
2 1.52658 19.0957 16.6882
1 -0.448473 19.0817 17.0931
1 1.51163 19.0947 18.6652
2 -0.445746 19.0209 19.0687
1 -0.454765 20.8918 19.5724
1 26.9531 19.0678 21.0876
2 -0.450082 21.0548 21.5102
1 1.5015 21.099 21.8712
1 -0.451422 21.0646 23.4887
2 1.50181 21.1065 23.8489
1 1.50432 19.1452 23.9642
1 1.50575 21.2661 25.7846
1 26.8032 19.2333 26.7946
1 1.51156 19.0972 28.6071
2 26.9437 23.0392 -0.159154
1 -0.46112 24.9919 0.261643
1 -0.445583 23.0449 1.82634
2 26.8591 24.9957 2.24436
1 1.33339 24.9873 2.7428
1 -0.483494 25.0223 4.26662
2 1.49068 24.9804 4.68426
1 1.52765 23.0403 5.05083
1 1.48904 24.9833 6.67078
2 1.53392 23.042 7.03449
1 26.9614 23.0426 7.18318
1 1.70271 23.0282 8.96971
1 -0.475276 25.2166 9.90235
1 -0.459866 23.2498 11.6122
2 -0.47088 25.113 11.8664
1 1.51031 25.0135 11.9582
1 26.7195 25.0227 13.8011
1 1.73573 22.8781 14.7877
1 1.52291 24.9881 16.6098
2 1.54077 23.0126 16.6907
1 -0.437099 23.0514 16.7851
1 1.69479 22.9901 18.6213
1 26.9699 25.1693 19.5892
1 -0.447691 23.0282 21.4005
2 -0.442288 25.0017 21.5194
1 1.50925 24.9992 21.8979
1 -0.444507 25.0175 23.4919
2 1.5114 25.0135 23.8788
1 1.50265 23.0897 24.2628
1 1.50072 25.023 25.8683
2 1.50179 23.1299 26.2923
1 -0.445382 23.0527 26.7
1 1.50009 23.042 28.2788
2 3.44896 26.9777 -0.185306
1 3.43428 1.57084 0.23741
1 3.4653 -0.266533 1.74952
2 3.46008 1.60124 2.25726
1 5.41661 1.52682 2.67345
1 3.46212 1.49929 4.2345
2 5.41812 1.50237 4.65475
1 5.41518 26.9456 5.07371
1 5.39739 1.50127 6.63507
2 5.39929 -0.451249 7.04859
1 3.45746 26.9313 7.46603
1 5.38753 -0.447133 9.0351
2 3.45504 -0.453126 9.45591
1 3.45952 1.49084 9.87176
1 3.46313 26.9392 11.4405
2 3.46305 1.49282 11.8608
1 5.4026 1.49306 12.2557
1 3.46541 1.47018 13.8231
2 5.57823 1.41891 14.2423
1 5.32183 26.8794 14.7204
1 5.49539 1.44648 16.2759
2 5.39469 -0.473499 16.6758
1 3.45762 26.9457 17.0922
1 5.38496 26.9369 18.66
2 3.46277 -0.447497 19.0893
1 3.45608 1.50223 19.5257
1 3.4567 -0.450477 21.0743
2 3.45981 1.5045 21.4941
1 5.41224 1.4917 21.911
1 3.44954 1.53114 23.467
2 5.40302 1.51516 23.8882
1 5.31034 -0.403757 24.3415
1 5.42589 1.52597 25.8735
2 5.39923 26.9642 26.2898
1 3.44125 26.9656 26.6855
1 5.37003 -0.338337 28.2389
2 3.4556 3.48543 28.6862
1 3.47751 5.42764 0.233239
1 3.46141 3.49561 1.83454
2 3.46676 5.43295 2.22097
1 5.42882 5.42641 2.63592
1 3.62128 5.41897 4.16646
2 5.4831 5.41311 4.66835
1 5.41435 3.45407 5.06767
1 5.41551 5.41461 6.63879
2 5.39889 3.4565 7.04257
1 3.46056 3.45111 7.44903
1 5.38249 3.44877 9.02941
2 3.45776 3.44103 9.45227
1 3.45198 5.39003 9.84834
1 3.432 3.42923 11.4333
2 3.43366 5.38544 11.8247
1 5.36912 5.24512 11.9829
1 3.26365 5.43422 13.7343
1 5.24284 3.30417 14.8165
1 5.41858 5.38456 16.6239
2 5.41102 3.4104 16.7309
1 3.49988 3.33999 17.1687
1 5.42474 3.40354 18.7055
2 3.45905 3.44348 19.1047
1 3.45315 5.41438 19.5051
1 3.4592 3.46138 21.0738
2 3.45892 5.41719 21.4846
1 5.41004 5.40161 21.9082
1 3.45301 5.41033 23.4689
2 5.41287 5.39721 23.8814
1 5.40631 3.4572 24.2966
1 5.4088 5.38897 25.8729
2 5.40529 3.45603 26.294
1 3.45512 3.4656 26.7042
1 5.40692 3.46294 28.2832
2 3.45778 7.37562 -0.157377
1 3.4393 9.32552 0.256263
1 3.45018 7.37475 1.82618
2 3.43383 9.32871 2.23604
1 5.35737 9.32568 2.6252
1 3.42274 9.33283 4.22486
2 5.30757 9.32543 4.65711
1 5.40666 7.3696 5.07396
1 5.38038 9.31618 6.63403
2 5.41923 7.36915 7.04735
1 3.44384 7.36603 7.45405
1 5.38649 7.36501 8.98551
2 3.45755 7.28823 9.44758
1 3.46584 9.15493 9.9611
1 3.4537 7.32578 11.4771
2 3.45358 9.32405 11.8984
1 5.37382 9.43019 12.2962
1 3.45397 9.34877 13.8812
2 5.41269 9.41291 14.2584
1 5.36071 7.50287 14.6995
1 5.43289 9.23037 16.2208
2 5.3938 7.32262 16.6722
1 3.45011 7.49155 17.1193
1 5.25203 7.38047 18.635
2 3.36889 7.39386 19.0973
1 3.4291 9.34338 19.5195
1 3.43956 7.37359 21.0708
2 3.45368 9.33389 21.4941
1 5.40493 9.3028 21.8884
1 3.45269 9.31851 23.4742
2 5.41144 9.30466 23.858
1 5.41171 7.31947 24.2705
1 5.40361 9.15011 25.7925
2 5.40951 7.28232 26.2939
1 3.45339 7.35986 26.7098
1 5.4113 7.36091 28.2742
2 3.42746 11.2809 28.7249
1 3.43821 13.2279 0.2824
1 3.41362 11.2782 1.85095
2 3.43034 13.2358 2.25047
1 5.34875 13.2481 2.63546
1 3.43496 13.2152 4.23545
2 5.33247 13.2391 4.66186
1 5.40012 11.271 5.04388
1 5.51147 13.1916 6.61002
2 5.43863 11.2614 7.03161
1 3.46003 11.2731 7.13186
1 5.57528 11.3101 8.97837
1 3.44358 13.4136 10.0139
1 3.41523 11.2989 11.7847
2 3.43766 13.277 11.9155
1 5.36783 13.2759 12.2411
1 3.4274 13.2841 13.8843
2 5.32993 13.2924 14.2543
1 5.40756 11.3366 14.3917
1 5.39867 13.4399 16.1937
1 3.27009 11.2987 17.1744
1 5.39311 11.3316 18.9883
2 3.42962 11.2944 19.1129
1 3.44329 13.2469 19.4959
1 3.43269 11.2914 21.0912
2 3.45449 13.245 21.4809
1 5.41082 13.2414 21.8503
1 3.45823 13.2297 23.4625
2 5.41442 13.2437 23.8083
1 5.41254 11.2633 23.9342
1 5.43337 13.2217 25.6838
1 3.27159 11.2892 26.7875
1 5.39279 11.2605 28.5975
2 3.46279 15.1805 28.7396
1 3.47843 17.1503 0.241649
1 3.43173 15.1937 1.85017
2 3.44707 17.1445 2.23707
1 5.36034 17.1449 2.64931
1 3.42131 17.1661 4.22933
2 5.3185 17.1667 4.65529
1 5.32907 15.2015 5.10097
1 5.4849 17.2271 6.59081
2 5.26556 15.2247 7.09573
1 3.46129 15.9838 7.52719
1 5.42172 15.2138 9.09113
2 3.46381 15.2854 9.35978
1 3.46653 17.1977 9.94273
1 3.45151 15.2554 11.5171
2 3.46596 17.1705 11.8914
1 5.42958 17.1765 12.2908
1 3.47581 17.1469 13.8571
2 5.42514 17.1817 14.2673
1 5.41129 15.2637 14.6623
1 5.41768 17.1957 16.2613
2 5.4162 15.3047 16.6863
1 3.45707 15.2205 17.0989
1 5.41513 15.2182 18.6636
2 3.45867 15.2004 19.0777
1 3.45033 17.1582 19.4927
1 3.45175 15.1963 21.0527
2 3.38509 17.1594 21.4683
1 5.26525 17.1998 21.9201
1 3.45115 17.1764 23.4402
2 5.4112 17.1824 23.8706
1 5.40518 15.2229 23.9309
1 5.41739 17.3512 25.8142
1 3.34497 14.9648 26.8399
1 5.42707 15.2068 28.6257
2 3.4835 19.1063 28.7225
1 3.43868 21.0235 0.250092
1 3.48595 19.0879 1.85194
2 3.46465 20.9837 2.26017
1 5.42222 21.0582 2.6696
1 3.47599 21.0996 4.23085
2 5.4206 21.0865 4.65077
1 5.38625 19.144 5.04772
1 5.42655 21.0795 6.63489
2 5.41351 19.1376 7.04349
1 3.46574 19.1471 7.47642
1 5.39695 19.1126 9.04299
2 3.4652 19.119 9.47087
1 3.4993 21.0721 9.88324
1 3.48937 19.1282 11.468
2 3.57022 21.0764 11.8652
1 5.46615 21.0801 12.2792
1 3.55598 21.0489 13.8571
2 5.44862 21.0708 14.2798
1 5.43384 19.1209 14.6849
1 5.43002 21.0702 16.2603
2 5.4181 19.1317 16.6762
1 3.4733 19.1176 17.1113
1 5.42116 19.1207 18.666
2 3.46794 19.1163 19.0825
1 3.4902 21.0703 19.5002
1 3.44722 19.1246 21.0531
2 3.45858 21.0755 21.4798
1 5.4171 21.1015 21.8996
1 3.44827 21.0712 23.455
2 5.40464 21.0885 23.8736
1 5.42428 19.1661 24.2619
1 5.46994 21.0993 25.8587
2 5.5236 19.2186 26.2951
1 3.66125 19.2396 26.8024
1 5.46958 19.1433 28.3207
2 3.45028 23.0018 -0.183675
1 3.44949 24.9904 -0.0841748
1 3.46603 22.8551 1.75354
1 5.58968 24.987 2.80366
1 3.46451 24.9874 4.58615
2 5.44527 24.988 4.70795
1 5.43645 23.0329 5.07555
1 5.44563 24.9876 6.66613
2 5.44288 23.0309 7.05205
1 3.52335 23.0356 7.43998
1 5.45373 23.0212 9.04296
2 3.56583 23.0312 9.46593
1 3.50098 24.9888 9.8574
1 3.50878 23.0371 11.4438
2 3.48164 24.9906 11.8315
1 5.47625 24.9888 12.2524
1 3.64036 24.9663 13.7597
2 5.50523 24.9676 14.2811
1 5.45192 23.0242 14.6886
1 5.43707 24.9616 16.2744
2 5.4389 23.0183 16.6685
1 3.52134 23.0191 17.0836
1 5.45141 23.0334 18.658
2 3.56461 23.0279 19.0946
1 3.47562 24.9866 19.5058
1 3.47498 23.0297 21.0679
2 3.46499 24.9878 21.4874
1 5.39884 24.9901 21.8849
1 3.45547 25.0014 23.4546
2 5.57353 24.9919 23.8643
1 5.30222 23.0065 24.3285
1 5.45959 24.993 25.8589
2 5.40232 23.0317 26.2855
1 3.44347 23.0389 26.6872
1 5.37373 22.9195 28.2384
2 7.37092 26.7905 -0.13291
1 7.36212 1.50915 0.27941
1 7.38553 -0.432318 1.84826
2 7.37395 1.50203 2.25214
1 9.32478 1.49199 2.68014
1 7.36564 1.50103 4.23935
2 9.31898 1.48901 4.66158
1 9.30799 26.9477 5.06477
1 9.31568 1.49703 6.65266
2 9.31129 26.9443 7.03267
1 7.32003 -0.442914 7.43992
1 9.14676 -0.440846 8.9601
2 7.27804 26.947 9.45506
1 7.33143 1.50488 9.88752
1 7.36682 26.9075 11.3907
2 7.36199 1.51514 11.9681
1 9.31007 1.5064 12.2546
1 7.36122 2.24544 13.8194
2 9.17539 1.49657 14.2503
1 9.41198 26.8843 14.7102
1 9.26779 1.49102 16.2552
2 9.32608 -0.462206 16.6509
1 7.3285 26.9093 17.0576
1 9.15596 -0.453164 18.5778
2 7.28231 26.928 19.0715
1 7.36084 1.4821 19.4875
1 7.35702 -0.436368 21.0215
2 7.36967 1.47969 21.4968
1 9.31949 1.4852 21.9026
1 7.36924 1.51128 23.4839
2 9.32671 1.51772 23.8866
1 9.43191 -0.408173 24.3402
1 9.28412 1.52407 25.8692
2 9.31733 26.9586 26.287
1 7.36524 -0.493297 26.72
1 9.35293 -0.339212 28.2444
2 7.35144 3.45273 28.7039
1 7.33366 5.40885 0.262236
1 7.35888 3.45286 1.83353
2 7.29906 5.41476 2.23067
1 9.15865 5.39973 2.73203
1 7.35404 5.40294 4.26486
2 9.32655 5.32481 4.67143
1 9.3078 3.42539 5.05177
1 9.30707 5.36352 6.68784
2 9.31019 3.44198 7.03329
1 7.31603 3.4416 7.43524
1 9.15078 3.43012 8.96024
2 7.27903 3.4612 9.4513
1 7.36517 5.41688 9.82008
1 7.36462 3.48894 11.3817
2 7.37678 5.56616 11.7986
1 9.37556 5.30247 12.2666
1 7.51369 5.4872 13.7522
2 9.34824 5.40122 14.2845
1 9.43696 3.47865 14.7322
1 9.31642 5.3912 16.2309
2 9.34373 3.44905 16.6858
1 7.37595 3.44059 17.0949
1 9.33403 3.4505 18.6673
2 7.37421 3.36483 19.0761
1 7.2809 5.21036 19.6081
1 7.38972 3.39567 21.1194
2 7.36549 5.39085 21.5257
1 9.32553 5.41355 21.903
1 7.3728 5.38531 23.4916
2 9.32621 5.41665 23.8825
1 9.31503 3.4673 24.2993
1 9.31925 5.41604 25.8604
2 9.23066 3.46634 26.2851
1 7.34207 3.46733 26.715
1 9.27713 3.46493 28.3136
2 7.35837 7.36283 -0.16226
1 7.35039 9.32758 0.239979
1 7.36344 7.37706 1.82001
2 7.34028 9.32643 2.2292
1 9.28065 9.33731 2.47485
1 7.16491 9.32264 4.17059
1 9.31894 7.19458 5.15286
1 9.35073 9.3047 6.97608
2 9.3238 7.35547 7.07734
1 7.36941 7.37479 7.47025
1 9.35798 7.37539 9.0052
2 7.37806 7.38004 9.56184
1 7.38848 9.34554 9.87636
1 8.1436 7.37487 11.4014
2 7.36927 9.17336 11.8456
1 9.36514 9.43774 12.3209
1 7.36805 9.27466 13.8316
2 9.33835 9.25476 14.2659
1 9.35952 7.35082 14.6632
1 9.33926 9.31048 16.2269
2 9.33253 7.37071 16.7754
1 7.35259 7.36382 16.7493
1 9.50902 8.13222 18.5699
1 7.27992 9.51534 19.5931
1 7.37625 7.36505 21.408
2 7.35536 9.33887 21.521
1 9.30167 9.33381 21.9008
1 7.36555 9.33603 23.5004
2 9.31028 9.32703 23.8976
1 9.31907 7.37022 24.3083
1 9.32364 9.32827 25.8776
2 9.32612 7.36479 26.2883
1 7.35646 7.3649 26.6952
1 9.27727 7.27074 28.2419
2 7.36999 11.2876 28.7167
1 7.23583 13.2085 0.276341
1 7.38501 11.2724 1.85324
2 7.34027 13.2427 2.20673
1 9.32853 13.2367 2.33541
1 7.18586 13.2576 4.12214
1 9.33755 11.2477 5.19857
1 10.0983 13.2469 6.91554
2 9.34278 11.4457 7.08165
1 7.38278 11.136 7.47316
1 9.36527 11.3419 9.06847
2 7.46214 11.2729 9.46648
1 7.35456 13.2469 9.86457
1 7.37644 11.2986 11.4376
2 7.35127 13.2474 11.8331
1 9.32233 13.2393 11.9376
1 7.20113 13.2749 13.7686
1 9.33942 11.1423 14.7563
1 9.36424 13.2543 16.5903
2 9.42436 11.2754 16.6996
1 7.56075 11.2879 17.1699
1 9.3817 11.2841 18.7334
2 7.37913 11.3635 19.0952
1 7.37969 13.2386 19.464
1 7.39617 11.3092 21.1272
2 7.37358 13.1815 21.5008
1 9.32467 13.2314 21.9139
1 7.37226 13.2439 23.4733
2 9.33178 13.2474 23.8763
1 9.34039 11.276 24.2961
1 9.35646 13.2223 25.8126
2 9.41788 11.2977 26.2885
1 7.53596 11.2787 26.7716
1 9.33494 11.3954 28.282
2 7.53275 15.2089 28.707
1 7.2594 17.2068 0.288313
1 7.42945 15.2052 1.83933
2 7.345 17.1659 2.22448
1 9.33054 17.1778 2.33418
1 7.18725 17.1503 4.14944
1 9.32917 15.2545 5.20434
1 9.31525 17.1771 7.00206
2 9.32675 15.052 7.08709
1 7.29615 15.3285 7.5178
1 9.32486 15.1447 9.06469
2 7.36682 15.2162 9.46622
1 7.36696 17.1697 9.90205
1 7.37572 15.2086 11.4525
2 7.37626 17.1633 11.8738
1 9.32936 17.1679 12.2836
1 7.38155 17.1866 13.8525
2 9.33946 17.2554 14.2661
1 9.32612 15.3884 14.7676
1 9.3268 17.2165 16.2885
2 9.33457 15.2267 16.7001
1 7.37446 15.2067 17.0713
1 9.32514 15.229 18.6733
2 7.37611 15.1998 19.0529
1 7.36827 17.1661 19.1619
1 7.3818 15.0431 20.9976
1 9.5485 17.158 21.9762
1 7.383 17.173 23.7832
2 9.35744 17.159 23.9034
1 9.33002 15.204 24.2999
1 9.35377 17.1889 25.8426
2 9.33517 15.2057 26.3905
1 7.46193 15.1911 26.7477
1 9.33342 15.969 28.2574
2 7.3844 19.1315 28.7182
1 7.37369 21.0711 0.285272
1 7.38472 19.134 1.85774
2 7.37709 21.0809 2.25491
1 9.3318 21.0873 2.67453
1 7.37214 21.0997 4.23823
2 9.32908 21.1684 4.6516
1 9.28738 19.2985 5.12424
1 9.32822 21.1236 6.67525
2 9.31215 19.1299 7.06017
1 7.33562 19.1501 7.45045
1 9.15393 19.1502 8.99866
2 7.2847 19.1216 9.47438
1 7.36008 21.076 9.88779
1 7.36571 19.1214 11.4567
2 7.3909 21.0764 11.8698
1 9.32656 21.0738 12.2873
1 7.38744 21.0776 13.8629
2 9.33217 21.0909 14.2744
1 9.33418 19.1504 14.6872
1 9.32729 21.0854 16.2627
2 9.31151 19.1413 16.6805
1 7.36676 19.1516 17.0696
1 9.3081 19.121 18.6657
2 7.36884 19.136 19.0508
1 7.37829 21.1097 19.4442
1 7.37615 19.3047 20.9898
2 7.37262 21.1701 21.4925
1 9.3179 21.1122 21.912
1 7.37336 21.0816 23.476
2 9.3438 21.0686 23.8848
1 9.33838 19.1299 24.2865
1 9.31478 21.054 25.8689
2 9.33333 19.1155 26.2982
1 7.41203 19.1278 26.7244
1 9.33286 19.1327 28.3136
2 7.36717 23.1829 -0.134969
1 8.15051 24.9874 0.295874
1 7.38525 23.0135 1.84899
2 7.45666 24.9869 2.12833
1 9.36491 24.9781 2.72822
1 7.41989 24.9892 4.30871
2 9.33802 24.9994 4.68157
1 9.34083 23.0566 5.08527
1 9.32967 24.9963 6.66221
2 9.33129 23.0469 7.06817
1 7.38284 23.0325 7.46995
1 9.33309 23.0326 9.04569
2 7.38561 23.0244 9.45998
1 7.36842 24.9686 9.86178
1 7.39571 23.0297 11.4465
2 7.39458 24.9826 11.8572
1 9.33223 24.9797 12.2871
1 7.40396 24.9616 13.8611
2 9.35028 24.9694 14.2777
1 9.33045 23.0294 14.6932
1 9.32513 24.9669 16.2768
2 9.33449 23.0259 16.6735
1 7.38476 23.0314 17.0792
1 9.33738 23.0226 18.65
2 7.38874 23.0472 19.0575
1 7.3639 24.9922 19.486
1 7.37519 23.0363 21.0068
2 7.37317 24.9915 21.5878
1 9.347 24.9828 21.8818
1 7.37433 25.7427 23.4291
2 9.17738 24.9821 23.8632
1 9.43032 22.9831 24.338
1 9.26587 24.9853 25.854
2 9.32475 23.0133 26.2816
1 7.3658 23.0822 26.7128
1 9.33411 22.9096 28.2364
2 11.2578 26.9393 -0.147142
1 11.2991 1.47342 0.252809
1 11.2577 26.9164 1.84712
2 11.2779 1.42808 2.26988
1 13.1947 1.62416 2.72234
1 11.2725 1.47787 4.25947
2 13.2503 1.51831 4.66519
1 13.2606 26.9468 5.04962
1 13.2619 1.50355 6.63915
2 13.2699 26.9397 7.02238
1 11.2918 -0.447741 7.14476
1 13.4292 -0.451495 8.95645
1 11.2718 1.49606 10.0462
1 11.2698 -0.479875 11.816
2 11.2012 1.49877 11.9301
1 13.0737 1.4798 12.3701
1 11.2216 1.48024 13.9194
2 13.2288 1.40393 14.2938
1 13.2639 -0.492534 14.6697
1 13.2331 1.44441 16.3061
2 13.2588 -0.476815 16.6592
1 11.2918 26.9307 16.7884
1 13.4086 26.9239 18.6024
1 11.2673 1.67092 19.5757
1 11.282 26.9354 21.3982
2 11.2647 1.51438 21.5065
1 13.192 1.48082 21.842
1 11.2605 1.54458 23.483
2 13.1516 1.49473 23.8537
1 13.2128 -0.508252 24.2615
1 13.1937 1.33033 25.7811
2 13.1352 26.8468 26.2736
1 11.2432 -0.489963 26.6864
1 13.1419 26.9331 28.2607
2 11.2682 3.4631 28.6983
1 11.2803 5.43154 -0.0690751
1 11.2154 3.30256 1.77866
1 13.4397 5.41765 2.75043
1 11.3005 5.39184 4.56725
2 13.2752 5.41494 4.68545
1 13.2812 3.46538 5.06671
1 13.2742 5.4213 6.66382
2 13.2686 3.46643 7.03135
1 11.2934 3.4438 7.14685
1 13.4213 3.4604 8.96065
1 11.2584 5.6018 9.91995
1 11.31 3.46773 11.796
2 11.2902 5.42641 11.8539
1 13.2413 5.45267 11.9122
1 11.1906 5.46699 13.7984
1 13.2358 3.27018 14.7732
1 13.261 5.38796 16.6055
2 13.2472 3.42253 16.706
1 11.2887 3.46785 17.1079
1 13.2391 3.38534 18.6746
2 11.3055 3.53228 19.0852
1 11.4274 5.3909 19.5585
1 11.2652 3.49096 21.1226
2 11.298 5.43009 21.5057
1 13.2386 5.43775 21.9131
1 11.2769 5.4381 23.4806
2 13.2369 5.43943 23.8665
1 13.2284 3.47156 23.9695
1 13.2376 5.59191 25.7901
1 11.0991 3.43194 26.7669
1 13.2379 3.47775 28.6217
2 11.2957 7.53964 -0.159487
1 12.0917 9.36664 0.306407
1 11.2941 7.502 1.79757
2 11.3063 9.40008 2.12911
1 13.3586 9.33854 2.69592
1 11.4872 9.34521 4.13413
2 13.3525 9.33049 4.66375
1 13.2723 7.36662 5.07398
1 13.2919 9.31642 6.63301
2 13.2582 7.37076 7.05302
1 11.3056 7.38165 7.45096
1 13.2405 7.40042 9.02628
2 11.2861 7.47069 9.44629
1 11.275 9.35509 9.88648
1 11.2874 7.42296 11.4826
2 11.279 9.36156 11.8683
1 13.1849 9.36314 12.2084
1 11.2959 9.34005 13.8469
2 13.2867 9.40344 14.2441
1 13.0523 7.50421 14.8214
1 13.2924 9.37865 16.2806
2 13.2459 7.38068 16.72
1 11.3445 7.37646 17.0601
1 13.2369 7.36775 18.6734
2 11.2575 7.37982 19.071
1 11.4263 9.38922 19.557
1 11.2286 7.38328 21.0702
2 11.2062 9.34116 21.4923
1 13.0711 9.32807 21.994
1 11.2288 9.32792 23.5035
2 13.2282 9.33049 23.9139
1 13.235 7.41674 24.2677
1 13.2403 9.32809 25.8986
2 13.2472 7.44463 26.2982
1 11.2819 7.45038 26.7092
1 13.2934 7.2788 28.2439
2 11.3175 11.1524 -0.125112
1 11.4255 13.1977 0.282762
1 11.2942 11.3123 1.86827
2 11.3248 13.2487 2.21551
1 13.323 13.2499 2.64116
1 11.4886 13.2554 4.13781
2 13.3456 13.2461 4.67137
1 13.2854 11.291 5.08939
1 13.2723 13.2439 6.65577
2 13.2706 11.2711 7.06309
1 11.3581 11.1563 7.49339
1 13.2663 11.2894 9.04503
2 11.3109 11.2784 9.45535
1 11.3354 13.2245 9.84958
1 11.3038 11.3072 11.4458
2 11.3031 13.2333 11.828
1 13.2935 13.2322 12.2666
1 11.4289 13.2589 13.7521
2 13.2948 13.255 14.288
1 13.1218 11.3409 14.7234
1 13.1448 13.2169 16.2626
2 13.2356 11.2974 16.6909
1 11.3018 11.252 17.1235
1 13.2569 11.3478 18.6533
2 11.3245 11.3004 19.105
1 11.2976 13.2376 19.4911
1 11.2676 11.3093 21.0949
2 11.2746 13.2409 21.4846
1 13.2355 13.2327 21.9028
1 11.2849 13.2464 23.4681
2 13.2397 13.2142 23.8684
1 13.2357 11.2448 24.2648
1 13.2525 13.0495 25.7997
2 13.2639 11.2072 26.3001
1 11.3131 11.2296 26.7278
1 13.3258 11.3781 28.2377
2 11.1334 15.1999 28.7064
1 11.4102 17.2042 0.289832
1 11.2318 15.1974 1.83607
2 11.3066 17.1602 2.23304
1 13.26 17.1381 2.65254
1 11.4559 17.1495 4.17275
2 13.3178 17.1615 4.67796
1 13.2724 15.1986 5.091
1 13.2821 17.1712 6.64616
2 13.2647 15.2156 7.06497
1 11.3481 15.3254 7.50253
1 13.2651 15.1683 9.04654
2 11.2924 15.1242 9.44949
1 11.2897 16.9847 9.96993
1 11.2894 15.1509 11.4784
2 11.2884 17.1401 11.8979
1 13.2303 17.1529 12.2651
1 11.2834 17.1479 13.8503
2 13.3769 17.1584 14.2443
1 13.1947 15.1622 14.7574
1 13.1635 17.2177 16.2001
2 13.3804 15.2154 16.7162
1 11.2713 15.2249 17.1193
1 13.2062 15.2355 18.6801
2 11.2717 15.2063 19.0839
1 11.3264 17.1648 19.5181
1 11.1861 15.151 21.0344
2 11.4985 17.1682 21.5062
1 13.2588 17.9545 21.963
1 11.3224 17.1565 23.5328
2 13.2559 17.1724 23.7765
1 13.2567 15.1481 24.1099
1 13.23 17.346 25.7696
1 11.2072 15.199 26.7509
1 13.2426 15.1966 28.6151
2 11.2846 19.1238 28.7201
1 11.2921 21.065 0.279979
1 11.2768 19.13 1.86192
2 11.283 21.075 2.25811
1 13.2302 21.0817 2.6628
1 11.2861 21.0984 4.23847
2 13.2281 21.0764 4.6582
1 13.2413 19.1235 5.02639
1 13.2408 21.0792 6.64738
2 13.2467 19.1238 6.98544
1 11.2689 19.1241 7.10383
1 13.241 19.1133 8.86332
1 11.3009 21.2089 9.96606
1 11.2843 19.1184 11.7915
2 11.2858 21.085 11.9083
1 13.247 21.0781 12.2932
1 11.2762 21.1259 13.8737
2 13.2336 21.1009 14.2729
1 13.1187 19.1953 14.7061
1 13.2313 21.0991 16.2716
2 13.1228 19.1379 16.6689
1 11.2407 19.1447 17.1137
1 13.1843 19.1219 18.6986
2 11.251 19.1126 19.0907
1 11.284 21.0639 19.4834
1 11.1788 19.163 21.0392
2 11.2782 21.0688 21.486
1 13.2481 21.0991 21.8833
1 11.2943 21.0481 23.457
2 13.2454 21.096 23.8685
1 13.2407 19.219 24.3338
1 13.2134 21.1224 25.8885
2 13.1476 19.2147 26.297
1 11.254 19.1355 26.7261
1 13.2028 19.1365 28.3056
2 11.1997 23.0136 -0.143807
1 11.2763 24.9742 0.265492
1 11.2486 23.0205 1.83201
2 11.2833 24.9647 2.26288
1 13.1976 24.8795 2.7129
1 11.293 24.9972 4.27672
2 13.2483 24.9769 4.66601
1 13.2459 23.0283 5.08807
1 13.2532 24.9869 6.64096
2 13.2474 23.0326 7.05738
1 11.2895 23.0394 7.46981
1 13.2423 23.045 9.0311
2 11.2886 23.0313 9.43966
1 11.2872 24.8544 9.96469
1 11.2864 23.03 11.5162
2 11.2882 24.9681 11.9118
1 13.2459 24.9739 12.2887
1 11.2963 24.9343 13.8816
2 13.2459 24.9658 14.2741
1 13.2505 23.0315 14.6935
1 13.2437 24.9745 16.2669
2 13.2464 23.0347 16.6785
1 11.2901 23.0208 17.088
1 13.245 23.0236 18.658
2 11.2911 22.9457 19.0665
1 11.2926 24.807 19.5723
1 11.2882 22.981 21.0942
2 11.2833 24.9631 21.5111
1 13.2376 24.9713 21.8885
1 11.2831 24.9533 23.4727
2 13.2318 24.9623 23.8683
1 13.2249 23.0233 24.2592
1 13.2219 24.9507 25.8576
2 13.2204 23.0366 26.26
1 11.2461 23.0463 26.6791
1 13.0637 23.021 28.2044
2 15.1058 -0.376389 -0.0229724
1 15.1984 1.55175 0.250463
1 15.902 26.984 1.85645
2 15.1997 1.37656 2.24196
1 17.2163 1.63236 2.71362
1 15.2104 1.46192 4.22888
2 17.1656 1.52089 4.65972
1 17.1772 -0.44653 5.06696
1 17.1633 1.50443 6.63126
2 17.1779 26.9432 7.04049
1 15.2557 -0.473465 7.41325
1 17.1917 -0.458613 9.0308
2 15.2989 -0.459449 9.43937
1 15.2494 1.50265 9.54622
1 15.2145 26.7728 11.3839
1 17.2792 1.51405 12.2961
1 15.1996 1.47324 14.1422
2 17.3044 1.48899 14.2561
1 17.053 26.8806 14.6868
1 17.1164 1.44509 16.2229
2 17.1309 -0.464268 16.6517
1 15.22 -0.485812 17.0715
1 17.148 -0.447041 18.649
2 15.272 26.9329 19.0945
1 15.1893 1.48101 19.4846
1 15.2123 -0.466355 21.0766
2 15.1872 1.48136 21.4591
1 17.1511 1.49536 21.5776
1 15.0179 1.4844 23.3895
1 17.1168 26.7416 24.0216
1 17.1959 1.72677 26.1137
1 14.9776 -0.459117 26.7824
1 16.9834 -0.427057 28.3766
2 15.2182 3.47864 28.7333
1 15.2408 5.41754 0.275033
1 15.2409 3.47049 1.85533
2 15.3066 5.41682 2.25074
1 17.1952 5.43495 2.67664
1 15.2626 5.42491 4.2744
2 17.1811 5.42238 4.66629
1 17.1648 3.46978 5.07486
1 17.1727 5.43252 6.64128
2 17.1605 3.46888 7.03706
1 15.2454 3.47778 7.40489
1 17.1629 3.46382 9.02614
2 15.2846 3.47533 9.42924
1 15.2306 5.45962 9.79352
1 15.2101 3.63714 11.3585
2 15.1907 5.51351 11.8114
1 17.1206 5.42677 12.2179
1 15.297 5.42617 13.7542
2 17.1204 5.32532 14.2808
1 17.0925 3.43861 14.722
1 17.0028 5.35583 16.2196
2 17.2896 3.44155 16.7128
1 15.186 3.41807 17.1185
1 17.134 3.41758 18.6863
2 15.1878 3.41828 19.083
1 15.0722 5.30876 19.5174
1 15.1915 3.41184 21.0927
2 15.1743 5.31929 21.4952
1 17.1328 5.42497 21.8917
1 15.1919 5.44352 23.4752
2 17.1482 5.55369 23.8649
1 17.1473 3.70109 24.3567
1 17.1861 5.51096 25.9049
2 17.2524 3.59866 26.3183
1 15.3757 3.51468 26.7977
1 17.2013 3.51532 28.3496
2 15.2171 7.36512 -0.157288
1 15.237 9.32901 0.250353
1 15.2322 7.37621 1.82451
2 15.2398 9.33116 2.23744
1 17.1725 9.3282 2.66464
1 15.2606 9.33125 4.25597
2 17.1828 9.33225 4.65897
1 17.1791 7.38028 5.07555
1 17.1679 9.33171 6.64184
2 17.1652 7.37855 7.05413
1 15.2118 7.38511 7.46411
1 17.1649 7.39556 9.0261
2 15.205 7.40074 9.4321
1 15.1828 9.34204 9.82941
1 15.2002 7.39045 11.3736
2 15.1959 9.34002 11.9375
1 17.1622 9.33908 11.9006
1 15.0405 10.1035 13.725
1 17.2754 7.18254 14.8069
1 17.1299 9.32813 16.4039
2 17.1541 7.33437 16.8052
1 15.1793 7.37976 17.0735
1 17.1665 7.98075 18.7031
2 15.3425 7.34067 19.0396
1 14.9675 9.33486 19.2414
1 15.2587 7.18696 20.9783
1 17.3517 9.33717 21.9883
1 15.209 9.34274 23.8053
2 17.1838 9.35078 23.9182
1 17.1455 7.43205 24.3048
1 17.1992 9.34577 25.9045
2 17.1711 7.417 26.3031
1 15.2208 7.4075 26.7044
1 17.1664 7.38228 28.2844
2 15.2282 11.2955 -0.160032
1 15.2411 13.2463 0.264446
1 15.2246 11.2828 1.82036
2 15.2324 13.2361 2.24404
1 17.1605 13.1939 2.67736
1 15.2372 13.2414 4.24761
2 17.1721 13.2387 4.65992
1 17.175 11.2863 5.07843
1 17.1621 13.2394 6.64273
2 17.1643 11.2856 7.0558
1 15.2141 11.2776 7.46821
1 17.1679 11.2869 9.03106
2 15.2118 11.2736 9.44687
1 15.2185 13.2099 9.83264
1 15.2151 11.3096 11.3919
2 15.2146 13.2193 11.863
1 17.1585 13.2412 12.2644
1 15.2237 13.231 13.8712
2 17.209 13.3202 14.2462
1 17.278 11.4711 14.7765
1 17.2511 13.2851 16.2128
2 17.1732 11.3141 16.8068
1 15.1981 11.2939 17.0552
1 17.161 12.1892 18.581
2 15.3289 11.3418 19.0396
1 15.0556 13.3112 19.5592
1 15.2698 11.4599 21.0047
2 15.1976 13.3375 21.5017
1 17.1759 13.2412 21.9086
1 15.1997 13.2465 23.466
2 17.1638 13.2188 23.8761
1 17.169 11.28 24.2936
1 17.163 13.2018 25.866
2 17.1739 11.276 26.2894
1 15.2334 11.2606 26.6928
1 17.1674 11.2817 28.2761
2 15.2026 15.1849 28.7236
1 15.1831 17.1257 0.256091
1 15.2221 15.1888 1.85565
2 15.1279 17.137 2.24237
1 16.9847 17.1336 2.74736
1 15.1887 17.1475 4.28174
2 17.1358 17.1504 4.69181
1 17.1518 15.1897 5.08255
1 17.1469 17.1522 6.67068
2 17.161 15.1958 7.05933
1 15.2107 15.1963 7.47411
1 17.1625 15.1892 9.03974
2 15.2108 15.1119 9.45011
1 15.1938 16.9765 9.98372
1 15.2109 15.1021 11.4146
2 15.1995 17.1443 11.9897
1 17.1686 17.1533 12.2453
1 15.1875 17.8682 13.8892
2 17.0145 17.1658 14.2073
1 17.2325 15.1788 14.6914
1 17.2518 17.0608 16.1226
2 17.0195 15.1625 16.7243
1 15.2056 15.9607 17.1503
1 17.1694 15.2293 18.7066
2 15.192 15.2221 18.9815
1 15.1333 17.2124 19.5622
1 15.3307 15.2097 21.0397
2 15.0623 17.175 21.5186
1 17.1262 17.1543 21.9023
1 15.2103 17.1492 23.5092
2 17.1414 17.1367 23.8684
1 17.1597 15.1382 24.2648
1 17.1759 16.9742 25.7959
2 17.2231 15.0982 26.2749