1849
Atoms. Timestep: 386
2 -0.180252 -0.200695 0.204948
1 -0.167889 1.69976 0.630471
1 -0.297069 -0.203495 2.18785
2 -0.17082 1.74959 2.56284
1 1.72223 1.72138 2.95606
1 -0.201449 1.71344 4.50987
2 1.71921 1.71761 4.90665
1 1.71607 -0.189005 5.28941
1 1.72021 1.71889 6.85706
2 1.72038 -0.238731 7.2478
1 -0.205289 -0.166676 7.64106
1 1.71812 -0.203668 9.24517
2 -0.262795 -0.197431 9.56543
1 -0.155591 1.73566 9.99643
1 -0.0779439 -0.186938 11.5383
2 -0.234581 1.74703 11.9301
1 1.71152 1.62241 12.3098
1 -0.199501 1.71254 13.8799
2 1.72347 1.74355 14.2884
1 1.72577 -0.204064 14.6168
1 1.71517 1.72248 16.2253
2 1.68887 -0.173551 16.6011
1 -0.204421 -0.203618 17.0077
1 1.72447 -0.205597 18.5588
2 -0.172023 -0.174001 18.9551
1 -0.199664 1.72154 19.3438
1 -0.208529 -0.204667 20.9024
2 -0.20297 1.71844 21.2957
1 1.71867 1.71844 21.6847
1 -0.201819 1.71922 23.2468
2 1.71944 1.7185 23.6368
1 1.71885 -0.202105 24.0262
1 1.71888 1.71818 25.5885
2 1.72012 -0.201975 25.9774
1 -0.201154 -0.202565 26.3651
1 1.72176 -0.203349 27.9272
2 -0.239019 3.63962 0.214454
1 -0.161147 5.57782 0.627076
1 -0.201343 3.64374 2.17521
2 -0.20219 5.56243 2.56389
1 1.7213 5.56782 2.959
1 -0.205709 5.55869 4.51557
2 1.68783 5.53066 4.90549
1 1.71603 3.63621 5.29595
1 1.72829 5.56027 6.8539
2 1.71818 3.63849 7.24616
1 -0.198423 3.64288 7.63667
1 1.71698 3.64137 9.19585
2 -0.203057 3.63773 9.58759
1 -0.201978 5.55812 9.98001
1 -0.206162 3.64431 11.5404
2 -0.202454 5.56054 11.9312
1 1.71474 5.56402 12.3185
1 -0.201884 5.56028 13.8807
2 1.72031 5.56016 14.2721
1 1.70835 3.64309 14.663
1 1.71874 5.56147 16.2231
2 1.72216 3.64199 16.6125
1 -0.201226 3.63823 17.0025
1 1.71797 3.63969 18.5653
2 -0.202548 3.64108 18.9538
1 -0.201984 5.56048 19.3449
1 -0.202015 3.64025 20.9062
2 -0.202241 5.5614 21.2953
1 1.72133 5.56801 21.6887
1 -0.20433 5.55878 23.2456
2 1.68975 5.53157 23.637
1 1.71635 3.63685 24.0267
1 1.72346 5.56169 25.5847
2 1.72004 3.63991 25.9792
1 -0.191491 3.6398 26.3606
1 1.71877 3.63998 27.9301
2 -0.203495 7.48211 0.223923
1 -0.201912 9.40392 0.61454
1 -0.2027 7.48466 2.17617
2 -0.200069 9.4046 2.57431
1 1.72863 9.40359 2.96159
1 -0.208098 9.40075 4.56065
2 1.67067 9.40393 4.88911
1 1.80816 7.48274 5.28595
1 1.63705 9.40232 6.86329
2 1.72688 7.45132 7.26535
1 -0.20494 7.57928 7.62652
1 1.71288 7.48584 9.19796
2 -0.204294 7.4596 9.6067
1 -0.202295 9.4014 9.93007
1 -0.201745 7.48119 11.5425
2 -0.202037 9.40202 11.9181
1 1.71601 9.40366 12.3219
1 -0.210154 9.40456 13.8579
2 1.71814 9.4027 14.3094
1 1.71888 7.47318 14.653
1 2.47416 9.40346 16.207
2 1.71888 7.51832 16.6037
1 -0.219142 7.44237 17.0174
1 1.71857 7.48465 18.5648
2 -0.203062 7.48262 18.9537
1 -0.207721 9.40606 19.3488
1 -0.198974 7.47837 20.9047
2 -0.17277 9.37247 21.2934
1 1.7266 9.39501 21.6876
1 -0.194454 9.37047 23.2255
2 1.66401 9.43366 23.6242
1 1.81927 7.48417 24.0176
1 1.81851 9.40142 25.5978
2 1.66523 7.45406 25.9915
1 -0.208457 7.48024 26.3709
1 1.72245 7.49033 27.926
2 -0.202777 11.3247 0.225036
1 -0.201482 13.2456 0.614511
1 -0.202099 11.3243 2.1736
2 -0.202524 13.244 2.57449
1 1.72203 13.2394 2.95436
1 -0.201795 13.2516 4.56239
2 1.71316 13.2777 4.88742
1 1.8015 11.3262 5.28953
1 1.62648 13.2414 6.86526
2 1.77047 11.3247 7.26348
1 -0.201298 11.3237 7.60885
1 1.70119 11.3246 9.19027
2 -0.204076 11.3246 9.63612
1 -0.202439 13.2481 9.93014
1 -0.202098 11.3255 11.5482
2 -0.202438 13.2485 11.9187
1 1.71813 13.2521 12.3248
1 -0.202662 13.2413 13.8786
2 1.6887 13.2151 14.2732
1 1.71627 11.3305 14.6534
1 1.72472 13.2483 16.2199
2 1.72055 11.2888 16.6033
1 -0.217645 11.3664 17.0143
1 1.72173 11.3225 18.5627
2 -0.179541 11.3247 18.9374
1 -0.208424 13.2443 19.3472
1 -0.295573 11.3244 20.917
2 -0.171789 13.276 21.2939
1 1.72343 13.248 21.6851
1 -0.184775 13.2806 23.2272
2 1.7184 13.2443 23.6378
1 1.7334 11.3249 24.0299
1 1.71759 13.2491 25.5882
2 1.68798 11.3545 25.9761
1 -0.19416 11.325 26.3907
1 1.72273 11.3182 27.9268
2 -0.202234 15.1653 0.22294
1 -0.205163 17.0844 0.612798
1 -0.202051 15.1661 2.17495
2 -0.202374 17.0882 2.56325
1 1.71823 17.0878 2.95171
1 -0.204964 17.0881 4.51358
2 1.69651 17.0881 4.88824
1 1.71617 15.1703 5.30235
1 1.81651 17.0915 6.86901
2 1.72023 15.166 7.24684
1 -0.205747 15.0672 7.625
1 1.71589 15.1698 9.19145
2 -0.203038 15.1896 9.60553
1 -0.199501 17.0874 9.98155
1 -0.201849 15.1682 11.5426
2 -0.200986 17.0888 11.9305
1 1.72777 17.0877 12.3296
1 -0.207966 17.0905 13.8793
2 1.6481 17.0874 14.2746
1 1.81546 15.165 14.6487
1 1.73316 17.088 16.2156
2 1.69666 15.1672 16.63
1 -0.201869 15.1672 17.0067
1 1.71794 15.1667 18.5674
2 -0.203064 15.1664 18.9561
1 -0.202103 17.0878 19.3434
1 -0.199409 15.1708 20.9046
2 -0.202647 17.0887 21.2958
1 1.71877 17.0877 21.6849
1 -0.202493 17.0879 23.2478
2 1.71912 17.087 23.6355
1 1.71954 15.167 24.0268
1 1.71868 17.0852 25.5863
2 1.72009 15.167 25.9787
1 -0.198367 15.1698 26.3688
1 1.71893 15.1658 27.9303
2 -0.23249 18.979 0.223074
1 -0.10778 20.9305 0.600519
1 -0.195471 19.0118 2.17183
2 -0.225117 20.9307 2.581
1 1.72095 20.9366 2.90929
1 -0.206568 20.9267 4.51758
2 1.68946 20.8998 4.89489
1 1.72229 19.0042 5.30002
1 1.72281 20.936 6.85139
2 1.68878 19.041 7.24751
1 -0.207484 19.0188 7.64029
1 1.7252 18.9998 9.19442
2 -0.17101 18.9785 9.58832
1 -0.296621 20.928 9.96578
1 -0.207674 19.0102 11.5367
2 -0.180211 20.9302 11.9472
1 1.72493 20.9227 12.3254
1 -0.203283 20.9333 13.8858
2 1.6909 20.9611 14.2716
1 1.81395 19.0106 14.6485
1 1.72171 20.9249 16.2195
2 1.69711 19.0082 16.6305
1 -0.205056 19.0092 17.0041
1 1.71806 19.0095 18.5671
2 -0.203629 19.0083 18.9553
1 -0.199522 20.9276 19.3436
1 -0.202276 19.0093 20.906
2 -0.202879 20.9307 21.2956
1 1.71863 20.9307 21.6862
1 -0.201886 20.9303 23.2468
2 1.71902 20.9302 23.6474
1 1.71901 19.0084 24.024
1 1.71895 20.9302 25.6364
2 1.71894 18.9865 25.9613
1 -0.199881 19.015 26.3714
1 1.719 19.1037 27.9425
2 -0.233095 22.8822 0.222414
1 -0.210557 24.7781 0.616758
1 -0.193666 22.8455 2.16978
2 -0.170104 24.741 2.56335
1 1.72444 24.7641 2.95815
1 -0.215478 24.7815 4.49187
2 1.69194 24.803 4.94342
1 1.81057 22.8422 5.27651
1 2.47241 24.7641 6.8289
2 1.69909 22.8887 7.25617
1 -0.221077 22.8065 7.65511
1 1.72284 22.8542 9.2007
2 -0.175507 22.8831 9.58992
1 -0.156795 24.7632 9.99658
1 -0.161366 22.826 11.5227
2 -0.265983 24.7437 11.9358
1 1.71835 24.8668 12.3064
1 -0.185965 24.7812 13.8865
2 1.69592 24.75 14.2717
1 1.72333 22.854 14.6671
1 1.81428 24.7711 16.2376
2 1.68967 22.8212 16.6138
1 -0.204407 22.8527 17.0069
1 1.72448 22.8548 18.5605
2 -0.172181 22.8232 18.9548
1 -0.290988 24.7725 19.3337
1 -0.208543 22.8539 20.9024
2 -0.179428 24.7726 21.3126
1 1.72203 24.7726 21.6878
1 -0.201314 24.7723 23.2499
2 1.72019 24.7736 23.6372
1 1.71873 22.8522 24.0238
1 1.71877 24.7754 25.5867
2 1.71918 22.874 25.9609
1 -0.199777 22.8452 26.3713
1 1.71888 22.7576 27.942
2 3.63983 -0.199777 0.22181
1 3.60015 1.70229 0.627173
1 3.64094 -0.200304 2.17316
2 3.63874 1.7185 2.56349
1 5.55759 1.72086 2.9537
1 3.63738 1.71942 4.51399
2 5.53802 1.71822 4.88822
1 5.57039 -0.196402 5.30096
1 5.65582 1.71927 6.86764
2 5.53121 -0.234482 7.2567
1 3.65375 -0.162374 7.64516
1 5.56652 -0.196091 9.24408
2 3.63966 -0.20217 9.54411
1 3.64816 1.71291 9.99255
1 3.64137 -0.204557 11.5729
2 3.59857 1.76185 11.9296
1 5.56306 1.71965 12.2866
1 3.62917 1.66891 13.8523
2 5.56005 1.75738 14.3248
1 5.55454 -0.206266 14.6172
1 5.56432 1.71222 16.2388
2 5.59027 -0.173024 16.6008
1 3.63959 -0.29688 16.9919
1 5.55613 -0.208744 18.5576
2 3.64067 -0.179899 18.9723
1 3.63976 1.72134 19.3465
1 3.63916 -0.201445 20.9087
2 3.63947 1.71944 21.2971
1 5.55789 1.72174 21.6857
1 3.63988 1.71808 23.2471
2 5.5604 1.71853 23.636
1 5.56129 -0.203171 24.026
1 5.56204 1.71005 25.5675
2 5.56058 -0.201069 25.9779
1 3.64007 -0.20275 26.3676
1 5.55434 -0.210172 27.9279
2 3.67627 3.63905 0.21295
1 3.59994 5.57458 0.626549
1 3.6423 3.63684 2.17327
2 3.63988 5.53677 2.54887
1 5.55882 5.56742 2.95892
1 3.63975 5.65735 4.52986
2 5.59227 5.52922 4.90379
1 5.57027 3.634 5.30074
1 5.5522 5.56365 6.85073
2 5.53038 3.67046 7.25861
1 3.63592 3.64288 7.6353
1 5.56303 3.63224 9.24282
2 3.61765 3.63662 9.57182
1 3.6433 5.55605 9.98139
1 3.73712 3.64806 11.548
2 3.61127 5.59242 11.9304
1 5.56114 5.46382 12.3082
1 3.62548 5.59716 13.8632
2 5.56119 5.54707 14.298
1 6.31538 3.63979 14.6497
1 5.56122 5.57174 16.2338
2 5.56011 3.64236 16.5666
1 3.63188 3.64063 17.0239
1 5.56159 3.63977 18.5635
2 3.64067 3.63936 18.9542
1 3.64033 5.56012 19.3424
1 3.64065 3.63735 20.9037
2 3.64024 5.53879 21.2785
1 5.5594 5.56696 21.6885
1 3.63964 5.64987 23.2574
2 5.5882 5.53146 23.6358
1 5.56366 3.63673 24.0268
1 5.55684 5.56925 25.5637
2 5.5596 3.63978 26.0151
1 3.63031 3.63947 26.3604
1 5.56125 4.39515 27.914
2 3.64096 7.45881 0.244493
1 3.64009 9.40312 0.557584
1 3.64046 7.48029 2.22501
2 3.6413 9.40343 2.50567
1 5.55265 9.40338 2.96602
1 3.64251 9.40472 4.54554
2 5.63365 9.40272 4.91873
1 5.46562 7.4795 5.28056
1 5.5468 9.40125 6.89695
2 5.58563 7.45935 7.24775
1 3.64575 7.4859 7.59311
1 5.56238 7.57742 9.21312
2 3.61067 7.45207 9.57754
1 3.73532 9.40212 9.96746
1 3.64317 7.48829 11.5335
2 3.61716 9.40428 11.9468
1 5.56219 9.4049 12.2706
1 3.64796 9.40268 13.8632
2 5.55866 9.40314 14.2609
1 5.56166 7.48466 14.6634
1 5.57133 9.40303 16.2213
2 5.55956 7.48359 16.6133
1 3.65639 7.44253 17.0187
1 5.56215 7.48296 18.5656
2 3.63983 7.4822 18.9643
1 3.63995 9.40389 19.3437
1 3.63813 7.48151 20.9533
2 3.64139 9.42574 21.2843
1 5.54115 9.3558 21.7039
1 3.63753 9.31027 23.3148
2 5.61357 9.42911 23.624
1 5.46108 7.48445 24.0187
1 5.46169 9.401 25.5979
2 5.61453 7.45184 25.9934
1 3.64008 7.57653 26.3035
1 5.55727 7.4983 27.9279
2 3.64007 11.3477 0.250631
1 3.64 13.2494 0.612071
1 3.63957 11.3279 2.22484
2 3.64135 13.2702 2.54752
1 5.55916 13.2396 2.95845
1 3.6428 13.1491 4.5248
2 5.59075 13.2774 4.91537
1 5.46533 11.3262 5.27558
1 5.55847 13.2424 6.90025
2 5.58653 11.3238 7.21844
1 3.65751 11.3234 7.6018
1 5.56218 11.3251 9.23562
2 3.56597 11.3235 9.57951
1 3.73526 13.2425 9.96704
1 3.6543 11.3218 11.5286
2 3.6164 13.2204 11.9317
1 5.55897 13.2522 12.2747
1 3.63927 13.3411 13.8964
2 5.59102 13.2145 14.2603
1 5.56431 11.3215 14.6624
1 5.55636 13.2493 16.2175
2 5.55903 11.3239 16.6126
1 3.65505 11.3647 17.0158
1 5.55432 11.3243 18.545
2 3.64038 11.326 18.9533
1 3.64037 13.2473 19.3449
1 3.63242 11.327 20.9042
2 3.64104 13.2457 21.2965
1 5.54494 13.2879 21.7009
1 3.63781 13.2459 23.2491
2 5.55943 13.2479 23.6368
1 5.55756 11.3248 24.0306
1 5.56375 13.2493 25.5881
2 5.59057 11.3542 25.9776
1 3.64 11.236 26.3589
1 5.55831 11.3181 27.9261
2 3.63963 15.1676 0.220667
1 3.64272 17.0847 0.614792
1 3.63989 15.1703 2.17199
2 3.63931 17.0885 2.57618
1 5.56166 17.0883 2.9509
1 3.63984 17.0874 4.56426
2 5.58302 17.0891 4.88694
1 5.55768 15.1734 5.29653
1 5.46694 17.0908 6.8662
2 5.59183 15.1595 7.22906
1 3.64559 15.2579 7.63076
1 5.55904 15.0778 9.20765
2 3.60811 15.1727 9.61708
1 3.63631 17.0913 9.9243
1 3.64641 15.1615 11.5867
2 3.64108 17.0877 11.8726
1 5.55233 17.0882 12.3307
1 3.64028 17.088 13.9145
2 5.6333 17.0878 14.2745
1 5.46599 15.1651 14.6494
1 5.54693 17.088 16.2156
2 5.58422 15.1677 16.6301
1 3.6401 15.1674 16.9539
1 5.55886 15.1651 18.5667
2 3.63942 15.1675 18.9431
1 3.63942 17.088 19.3446
1 3.63867 15.168 20.9036
2 3.63928 17.0885 21.2955
1 5.55464 17.0857 21.688
1 3.64007 17.0882 23.2475
2 5.5612 17.0886 23.6384
1 5.56157 15.168 24.0274
1 5.56086 17.0884 25.5891
2 5.56089 15.1675 25.9788
1 3.64017 15.1677 26.3677
1 5.56107 15.167 27.9302
2 3.67037 18.9779 0.221267
1 3.54637 20.9291 0.597807
1 3.63386 19.0084 2.16856
2 3.66331 20.9067 2.56485
1 5.56213 20.9371 2.95915
1 3.64167 21.0251 4.53068
2 5.59123 20.8994 4.90637
1 5.55759 19.0038 5.29918
1 5.55911 20.9354 6.85308
2 5.59053 19.0397 7.24763
1 3.6399 18.914 7.62655
1 5.55849 19.0038 9.19526
2 3.64112 19.0341 9.61593
1 3.6412 20.9342 9.97915
1 3.64011 19.0123 11.5901
2 3.6401 20.9527 11.9149
1 5.5587 20.9235 12.3226
1 3.64023 20.8352 13.8935
2 5.59046 20.9612 14.2704
1 5.46582 19.0107 14.6485
1 5.55826 20.9241 16.2194
2 5.58335 19.0074 16.6286
1 3.64017 19.0079 16.9541
1 5.55515 19.0116 18.564
2 3.63911 19.0083 18.9434
1 3.64017 20.9271 19.3465
1 3.6394 19.0089 20.9044
2 3.63931 20.9287 21.2968
1 5.55835 20.933 21.6855
1 3.63986 20.9302 23.247
2 5.56126 20.9294 23.6376
1 5.56108 19.0091 24.0266
1 5.56165 20.9306 25.5888
2 5.561 19.0099 25.9777
1 3.63771 19.0153 26.371
1 5.56465 19.007 27.9294
2 3.67012 22.8818 0.233285
1 3.64173 24.7766 0.610679
1 3.63366 22.8491 2.21801
2 3.63864 24.7959 2.54616
1 5.55328 24.7637 2.95889
1 3.65033 24.6782 4.50335
2 5.58911 24.8045 4.9084
1 5.46723 22.8518 5.28258
1 5.56236 24.7673 6.85398
2 5.58199 22.8532 7.2644
1 3.6585 22.8092 7.60659
1 5.56313 22.8519 9.20279
2 3.64017 22.8546 9.57503
1 3.64084 24.7811 9.99226
1 3.64033 22.8455 11.5344
2 3.63977 24.7001 11.944
1 5.56398 24.8688 12.3043
1 3.64008 24.7883 13.9216
2 5.58401 24.7499 14.271
1 5.55725 22.8545 14.6671
1 5.46721 24.7713 16.2377
2 5.5905 22.8198 16.6146
1 3.63997 22.9465 16.9901
1 5.55959 22.8573 18.562
2 3.64049 22.8289 18.9711
1 3.64106 24.7725 19.296
1 3.64067 22.8507 20.9084
2 3.63958 24.773 21.2843
1 5.55757 24.7696 21.6864
1 3.64028 24.7725 23.2459
2 5.5615 24.7735 23.6384
1 5.56186 22.8514 24.0259
1 5.56021 24.7724 25.5892
2 5.56059 22.8515 25.9766
1 3.63775 22.8453 26.3728
1 5.56155 22.8519 27.9282
2 7.42808 -0.173693 0.208884
1 7.52763 1.70226 0.632409
1 7.58236 -0.205657 2.18448
2 7.45319 1.749 2.57464
1 9.40405 1.62928 2.94151
1 7.48503 1.71189 4.56063
2 9.4283 1.74172 4.90665
1 9.40378 -0.203114 5.25315
1 9.3062 1.72375 6.87113
2 9.40471 -0.201173 7.23347
1 7.48024 -0.105871 7.62378
1 9.39933 -0.204225 9.186
2 7.50549 -0.225584 9.58913
1 7.46718 1.71852 9.93793
1 7.38547 -0.205474 11.5545
2 7.55293 1.71887 11.9158
1 9.40665 1.72185 12.3235
1 7.49099 1.67653 13.8553
2 9.40006 1.71937 14.274
1 9.40367 -0.202289 14.6629
1 9.40105 1.71508 16.2222
2 9.40431 -0.203279 16.6226
1 7.48501 -0.199609 17.001
1 9.40315 -0.201868 18.6122
2 7.45897 -0.203144 18.9378
1 7.48863 1.71636 19.3468
1 7.57791 -0.201725 20.9188
2 7.45224 1.74997 21.2949
1 9.40353 1.63025 21.6741
1 7.48196 1.71038 23.2431
2 9.37473 1.70959 23.6535
1 9.40427 -0.209926 23.9859
1 9.40499 1.72958 25.5849
2 9.36649 -0.142663 25.9619
1 7.48173 -0.205343 26.3714
1 9.40271 -0.305731 27.9916
2 7.44629 3.63996 0.214876
1 7.52243 5.57822 0.626706
1 7.47801 3.64338 2.17464
2 7.48185 5.56229 2.56386
1 9.4008 5.55938 2.9555
1 7.48592 5.55925 4.51535
2 9.40388 5.5623 4.90579
1 9.39777 3.64085 5.30011
1 9.40538 5.56427 6.85731
2 9.43554 3.67022 7.24666
1 7.48345 3.54617 7.62155
1 9.40007 3.63514 9.19275
2 7.50384 3.6622 9.58825
1 7.47916 5.55855 9.98373
1 7.38888 3.64282 11.553
2 7.50959 5.59292 11.9299
1 9.40655 5.56234 12.3169
1 7.49429 5.59783 13.8611
2 9.37952 5.55937 14.2555
1 9.42092 3.6418 14.6631
1 9.49802 5.56127 16.2354
2 9.37026 3.60975 16.6102
1 7.48687 3.637 17.0252
1 9.40727 3.6466 18.5609
2 7.48332 3.64076 18.9564
1 7.48239 5.5616 19.3448
1 7.47928 3.64406 20.9057
2 7.48524 5.5623 21.2949
1 9.41186 5.56124 21.6956
1 7.47643 5.55906 23.2447
2 9.33264 5.56172 23.6399
1 9.49936 3.64214 24.0179
1 9.41693 5.56163 25.5817
2 9.3794 3.64229 25.9975
1 7.4886 3.64048 26.3617
1 9.40389 3.64075 27.9331
2 7.48004 7.48207 0.225987
1 7.48263 9.40337 0.612436
1 7.48099 7.48398 2.17622
2 7.47912 9.40317 2.56288
1 9.39972 9.40608 2.95479
1 7.49114 9.40345 4.51395
2 9.40553 9.40254 4.90675
1 9.40318 7.48237 5.29511
1 9.403 9.40433 6.85729
2 9.40406 7.48382 7.2465
1 7.48303 7.48983 7.64227
1 9.40649 7.47937 9.1983
2 7.51235 7.45134 9.5891
1 7.38621 9.40171 9.96528
1 7.47924 7.48864 11.5358
2 7.50449 9.40432 11.9476
1 9.4054 9.4036 12.3225
1 7.4832 9.40347 13.8847
2 9.40557 9.40317 14.2722
1 9.40993 7.4803 14.6643
1 9.40085 9.40679 16.222
2 9.3733 7.51284 16.6124
1 7.47947 7.48498 17.0027
1 9.40662 7.47536 18.5603
2 7.48371 7.48038 18.9541
1 7.479 9.38603 19.3307
1 7.48105 7.47948 20.9049
2 7.46911 9.40905 21.2804
1 9.43597 9.45656 21.699
1 7.48753 9.41653 23.2405
2 9.36859 9.40671 23.6595
1 9.50032 7.48005 24.0184
1 9.41074 9.40005 25.5893
2 9.38038 7.48071 25.9945
1 7.48652 7.4802 26.3727
1 9.40056 7.48332 27.93
2 7.4816 11.324 0.22371
1 7.48197 13.2455 0.61221
1 7.48268 11.3242 2.17473
2 7.48198 13.245 2.56356
1 9.40326 13.2454 2.95401
1 7.48495 13.2485 4.51536
2 9.40392 13.2453 4.90646
1 9.40435 11.3242 5.29497
1 9.40216 13.2455 6.85761
2 9.40091 11.3251 7.24566
1 7.47651 11.3246 7.64921
1 9.41219 11.3256 9.19655
2 7.55481 11.3244 9.59282
1 7.38561 13.2478 9.96507
1 7.46781 11.325 11.5333
2 7.50473 13.2462 11.9468
1 9.40606 13.2455 12.3215
1 7.48644 13.2436 13.8837
2 9.40532 13.245 14.2713
1 9.40278 11.3245 14.6614
1 9.40347 13.2431 16.2203
2 9.40389 11.3252 16.6178
1 7.48279 11.3248 17.0003
1 9.42315 11.3235 18.5685
2 7.4781 11.3241 18.9691
1 7.47578 13.2593 19.3318
1 8.06665 11.3238 20.8
2 7.47035 13.2388 21.2832
1 9.43369 13.1852 21.6963
1 7.48402 13.2364 23.2448
2 9.40083 13.2731 23.6569
1 9.40676 11.3279 23.9708
1 9.4029 13.2465 25.592
2 9.405 11.324 25.9664
1 7.48597 11.3265 26.3687
1 9.40364 11.3242 27.9286
2 7.48245 15.167 0.222956
1 7.48204 17.088 0.61235
1 7.48184 15.1666 2.17512
2 7.48362 17.088 2.56288
1 9.40371 17.0884 2.95397
1 7.48488 17.0879 4.51382
2 9.40292 17.0884 4.90631
1 9.4034 15.1668 5.29543
1 9.40482 17.0877 6.85787
2 9.40305 15.1661 7.24634
1 7.48293 15.1575 7.64064
1 9.40672 15.1692 9.19806
2 7.51212 15.1986 9.58895
1 7.48506 17.0914 9.97921
1 7.47619 15.1648 11.537
2 7.4791 17.0876 11.9292
1 9.40267 17.0877 12.3208
1 7.49177 17.088 13.8794
2 9.40546 17.0881 14.2822
1 9.40377 15.1662 14.6581
1 9.4033 17.0884 16.271
2 9.40372 15.1442 16.5952
1 7.48748 15.1739 17.0075
1 9.40402 15.2562 18.5742
2 7.45546 15.1386 18.9545
1 7.58177 17.0898 19.3349
1 7.48509 15.1693 20.9013
2 7.42915 17.0602 21.31
1 9.40335 17.1826 21.6196
1 7.48568 17.0943 23.2448
2 9.40357 17.0659 23.6477
1 9.40331 15.1686 24.032
1 9.40309 17.0872 25.5903
2 9.40378 15.1671 25.9812
1 7.48246 15.1665 26.3676
1 9.40346 15.1669 27.9304
2 7.48355 19.009 0.22326
1 7.48007 20.9268 0.61333
1 7.4822 19.0096 2.17515
2 7.48269 20.9313 2.56382
1 9.39968 20.927 2.95544
1 7.48587 20.9277 4.51595
2 9.40457 20.9316 4.90623
1 9.40276 19.0097 5.29489
1 9.39967 20.9267 6.85669
2 9.40374 19.0085 7.2464
1 7.48541 19.0125 7.63721
1 9.40325 19.0088 9.1988
2 7.48137 19.0089 9.58887
1 7.48204 20.9304 9.97731
1 7.48219 19.0086 11.5403
2 7.48159 20.9287 11.9296
1 9.40332 20.931 12.3192
1 7.48539 20.9329 13.8814
2 9.40451 20.9306 14.2702
1 9.40397 19.0097 14.6591
1 9.40307 20.9326 16.221
2 9.40382 19.0313 16.6008
1 7.4882 19.003 17.007
1 9.4036 18.9153 18.6299
2 7.42981 19.0375 18.9417
1 7.48628 20.931 19.347
1 7.58192 19.007 20.9149
2 7.45375 20.9589 21.2956
1 9.40324 20.8408 21.6742
1 7.48392 20.9241 23.2426
2 9.40057 20.9519 23.6517
1 9.40435 19.0066 23.9765
1 9.3635 20.9115 25.5734
2 9.40284 19.009 25.968
1 7.48143 19.0077 26.3691
1 9.40345 19.0085 27.9293
2 7.45324 22.8221 0.223633
1 7.57982 24.7747 0.604529
1 7.48596 22.8512 2.17132
2 7.42732 24.7436 2.5766
1 9.39437 24.8702 2.88867
1 7.48574 24.7809 4.51076
2 9.3815 24.7489 4.89965
1 9.41088 22.8517 5.30056
1 9.50119 24.7682 6.87057
2 9.37324 22.8199 7.24806
1 7.48177 22.8477 7.63954
1 9.40603 22.8586 9.19644
2 7.48316 22.8525 9.5894
1 7.47625 24.772 9.98366
1 7.4846 22.8478 11.5401
2 7.51331 24.7419 11.9297
1 9.40446 24.7681 12.321
1 7.48274 24.7783 13.8762
2 9.40313 24.7745 14.2727
1 9.40332 22.8521 14.6603
1 9.40434 24.7728 16.2228
2 9.40423 22.852 16.613
1 7.48538 22.8485 17.0027
1 9.40328 22.8518 18.564
2 7.48393 22.8529 18.9535
1 7.48869 24.7748 19.3472
1 7.47722 22.8513 20.9044
2 7.45148 24.743 21.2941
1 9.40042 24.8682 21.6692
1 7.4813 24.7786 23.2407
2 9.37673 24.7456 23.6395
1 9.41006 22.8532 24.0333
1 9.4636 24.8044 25.6314
2 9.41039 22.8152 25.9776
1 7.48218 22.857 26.3716
1 9.38233 22.9327 27.952
2 11.3563 -0.147781 0.196803
1 11.3261 1.71859 0.627583
1 11.3208 -0.199942 2.20755
2 11.3255 1.7897 2.56765
1 13.245 1.62094 2.94291
1 11.3278 1.70479 4.50572
2 13.2478 1.74134 4.93527
1 13.2377 -0.203543 5.24877
1 13.2397 1.72295 6.9078
2 13.2767 -0.191785 7.22194
1 11.3309 -0.293239 7.62946
1 13.2422 -0.113811 9.26101
2 11.2689 -0.206249 9.5938
1 11.4247 1.7194 9.97303
1 11.4195 -0.1988 11.5504
2 11.2734 1.74678 11.9441
1 13.2471 1.61875 12.2569
1 11.3249 1.71453 13.8787
2 13.2171 1.77178 14.2791
1 13.3344 -0.201949 14.5958
1 13.2544 1.71277 16.2182
2 13.2239 -0.202431 16.6213
1 11.3217 -0.203597 17.0005
1 13.2294 -0.162705 18.5474
2 11.3466 -0.204397 18.9373
1 11.3178 1.71361 19.3467
1 11.2296 -0.205516 20.9126
2 11.3544 1.72392 21.2788
1 13.2424 1.72995 21.6861
1 11.3064 1.83986 23.2397
2 13.2519 1.6421 23.6274
1 14.001 -0.204589 24.0672
1 13.338 1.73465 25.6013
2 13.215 -0.158947 25.9516
1 11.303 -0.213869 26.3902
1 13.2571 -0.209906 27.9621
2 11.3284 3.6386 0.21078
1 11.3313 5.5629 0.616537
1 11.3217 3.64575 2.1707
2 11.2949 5.53265 2.56496
1 13.2456 5.6567 2.94299
1 11.3264 5.56673 4.51278
2 13.2451 5.54115 4.92048
1 13.2447 3.64035 5.29658
1 13.244 5.55581 6.83689
2 13.2462 3.66371 7.23375
1 11.3303 3.63684 7.6401
1 13.2457 3.54239 9.21172
2 11.2963 3.66948 9.58785
1 11.2818 5.54812 9.9949
1 11.331 3.63918 11.5377
2 11.3256 5.56198 11.9405
1 13.2433 5.5587 12.3198
1 11.3246 5.56067 13.9296
2 13.2691 5.56284 14.2543
1 13.238 3.64843 14.6665
1 13.1508 5.56056 16.2346
2 13.2767 3.60986 16.6143
1 11.3248 3.73409 16.991
1 13.243 3.64573 18.5616
2 11.3236 3.61648 18.9812
1 11.3244 5.56124 19.289
1 11.3281 3.64068 20.9538
2 11.3228 5.56102 21.2373
1 13.2346 5.56109 21.692
1 11.321 5.56071 23.2748
2 13.2937 5.56086 23.6192
1 13.1654 3.63773 24.0197
1 13.2351 5.56346 25.5813
2 13.1914 3.6297 25.9915
1 11.313 3.64041 26.3235
1 13.2548 3.64804 27.9193
2 11.3029 7.48136 0.194702
1 11.331 9.40038 0.616009
1 11.419 7.48252 2.18536
2 11.294 9.43384 2.56447
1 13.246 9.309 2.94162
1 11.3271 9.39771 4.5126
2 13.2457 9.42548 4.92102
1 13.245 7.48273 5.24675
1 13.2438 9.40923 6.83815
2 13.2442 7.48203 7.27152
1 11.3155 7.48207 7.62969
1 13.2455 8.23637 9.18142
2 11.3615 7.48392 9.58067
1 11.2851 9.42077 9.99267
1 11.3254 7.48195 11.5406
2 11.3241 9.40224 11.9295
1 13.2415 9.40647 12.3216
1 11.3248 9.40372 13.8816
2 13.2466 9.40266 14.2731
1 13.2394 7.47993 14.6643
1 13.2392 9.40693 16.2231
2 13.2769 7.5132 16.6119
1 11.3246 7.38812 16.9918
1 13.2413 7.47702 18.5621
2 11.3238 7.50614 18.9815
1 11.3171 9.40924 19.346
1 11.3288 7.48025 20.9539
2 11.3615 9.38724 21.2733
1 13.2479 9.39266 21.6902
1 11.3221 9.31993 23.2544
2 13.2768 9.4345 23.6368
1 13.1565 7.48318 24.0174
1 13.2359 9.40603 25.5832
2 13.2322 7.52503 26.0032
1 11.3187 7.48712 26.3191
1 13.2505 7.46799 27.9734
2 11.3251 11.324 0.2228
1 11.3247 13.2457 0.612305
1 11.3225 11.3281 2.17409
2 11.3231 13.2468 2.56275
1 13.2412 13.244 2.95286
1 11.322 13.246 4.5136
2 13.2237 13.246 4.88861
1 13.2527 11.331 5.30014
1 13.3402 13.246 6.86944
2 13.215 11.2935 7.25029
1 11.3208 11.3222 7.63719
1 13.2487 11.3402 9.19657
2 11.3277 11.3246 9.58882
1 11.3248 13.2457 9.97832
1 11.3254 11.3258 11.5412
2 11.3252 13.2458 11.9296
1 13.2463 13.2457 12.32
1 11.3247 13.2459 13.8819
2 13.2449 13.2452 14.2724
1 13.2449 11.3244 14.6602
1 13.2435 13.2467 16.2232
2 13.2462 11.3249 16.61
1 11.3267 11.3256 16.9987
1 13.2483 11.3242 18.5614
2 11.3481 11.3252 18.9342
1 11.32 13.2408 19.3474
1 11.324 11.3277 20.9024
2 11.3593 13.2861 21.2921
1 13.2502 13.2508 21.6862
1 11.3211 13.2329 23.2403
2 13.2439 13.2459 23.6374
1 13.248 11.3278 24.0273
1 13.2456 13.2454 25.5888
2 13.2451 11.3247 25.979
1 11.3245 11.3243 26.3689
1 13.2454 11.3243 27.9297
2 11.3244 15.1669 0.223565
1 11.3247 17.0878 0.612795
1 11.3246 15.1672 2.17526
2 11.3237 17.0877 2.56363
1 13.2393 17.0946 2.95979
1 11.3223 17.0855 4.51588
2 13.2195 17.0583 4.90542
1 13.2494 15.1618 5.29934
1 13.2478 17.0908 6.853
2 13.2169 15.1969 7.24767
1 11.3217 15.1702 7.63719
1 13.2484 15.1611 9.1958
2 11.3255 15.1654 9.5891
1 11.3251 17.088 9.97724
1 11.3249 15.1669 11.5402
2 11.3236 17.0885 11.9293
1 13.2425 17.0856 12.32
1 11.3246 17.0881 13.8811
2 13.2457 17.0888 14.2718
1 13.2465 15.1671 14.6607
1 13.2466 17.0884 16.2233
2 13.2445 15.1672 16.6121
1 11.3221 15.1731 17.0058
1 13.2485 15.1647 18.5644
2 11.3528 15.1367 18.9533
1 11.2253 17.0901 19.335
1 11.3239 15.1717 20.9005
2 11.3776 17.0605 21.3099
1 13.2527 17.0856 21.6879
1 11.3214 17.0944 23.2447
2 13.2462 17.0879 23.6385
1 13.2448 15.167 24.0252
1 13.2459 17.0883 25.5888
2 13.2451 15.1668 25.977
1 11.3246 15.1668 26.368
1 13.2438 15.1673 27.9281
2 11.3248 19.0092 0.222987
1 11.3342 20.9215 0.635847
1 11.3217 19.0041 2.17541
2 11.2926 20.8987 2.56341
1 13.2452 21.0225 2.94476
1 11.3202 20.9389 4.50927
2 13.1904 20.9336 4.91025
1 13.3403 19.0077 5.29032
1 13.3486 20.9233 6.8682
2 13.1917 18.9808 7.26111
1 11.3179 19.0056 7.63955
1 13.2464 19.0158 9.19452
2 11.3241 19.0099 9.59016
1 11.3249 20.9274 9.98066
1 11.3243 19.0091 11.5405
2 11.3232 20.9286 11.9308
1 13.2369 20.9298 12.3215
1 11.3252 20.9305 13.8819
2 13.2489 20.9293 14.2718
1 13.2458 19.0094 14.6607
1 13.2449 20.9293 16.2223
2 13.2466 19.0094 16.6106
1 11.3214 19.003 17.0048
1 13.2491 19.0088 18.5609
2 11.3775 19.038 18.9404
1 11.3185 20.9301 19.3481
1 11.2253 19.0074 20.915
2 11.3535 20.9602 21.2961
1 13.2481 20.9387 21.6914
1 11.319 20.922 23.2433
2 13.2172 20.9001 23.6376
1 13.2428 19.0038 24.0251
1 13.2904 20.9131 25.5688
2 13.2461 19.0093 25.9771
1 11.3246 19.002 26.3681
1 13.2435 19.0096 27.9277
2 11.3301 22.8173 0.189455
1 11.2387 24.801 0.611134
1 11.4165 22.8472 2.18402
2 11.3055 24.7321 2.58823
1 13.2511 24.7726 2.92232
1 11.3301 24.7807 4.55064
2 13.2717 24.772 4.93441
1 13.2435 22.8514 5.2544
1 13.1492 24.7735 6.87287
2 13.246 22.8502 7.23628
1 11.3216 22.949 7.62596
1 13.2435 22.8502 9.18901
2 11.3259 22.8278 9.60543
1 11.3291 24.7721 9.93438
1 11.3218 22.8479 11.5424
2 11.2963 24.7448 11.9189
1 13.2405 24.8698 12.3145
1 11.3242 24.777 13.8764
2 13.219 24.7192 14.2852
1 13.2438 22.8446 14.6634
1 13.2524 24.7757 16.219
2 13.2476 22.8503 16.6136
1 11.3238 22.8524 17.0008
1 13.2263 22.8143 18.5497
2 11.323 22.8523 18.9532
1 11.3096 24.7744 19.3479
1 11.3296 22.8512 20.9029
2 11.3551 24.7425 21.3057
1 13.2421 24.7615 21.7023
1 11.2981 24.7453 23.282
2 13.2226 24.8421 23.602
1 13.3369 22.8584 24.0246
1 13.2851 24.7887 25.6002
2 13.1822 22.8013 26.0194
1 11.3067 23.448 26.4847
1 13.2678 22.8522 27.9875
2 15.1917 -0.203184 0.252392
1 15.1626 1.71608 0.56943
1 15.0407 -0.215524 2.1802
2 15.2335 1.74799 2.5626
1 17.0879 2.47038 2.969
1 15.146 1.71255 4.49752
2 17.0858 1.71994 4.90572
1 17.0888 -0.219348 5.31
1 17.8481 1.72103 6.84521
2 17.0857 -0.167327 7.24915
1 15.1482 -0.234174 7.65088
1 17.0936 -0.202381 9.24687
2 15.1978 -0.232989 9.5499
1 15.0722 1.70875 9.97717
1 15.1635 -0.199478 11.6246
2 15.1916 1.8095 11.9371
1 17.0903 1.6163 12.3129
1 15.1656 1.61267 13.8878
2 17.116 1.77204 14.2851
1 16.9993 -0.199815 14.5979
1 17.0819 1.71582 16.2192
2 17.1085 -0.201068 16.6365
1 15.1659 -0.204597 16.9505
1 17.1068 -0.15998 18.5969
2 15.1462 -0.23623 18.9334
1 15.1725 1.71724 19.3488
1 15.2606 -0.190914 20.9173
2 15.136 1.74881 21.3061
1 17.0896 1.62337 21.6641
1 15.1865 1.75317 23.2738
2 17.0874 1.74152 23.6082
1 17.0931 -0.192882 23.9943
1 17.0849 1.7192 25.6236
2 17.1275 -0.245105 25.966
1 15.1799 -0.195664 26.3603
1 17.0866 -0.194994 27.9124
2 15.1699 3.63612 0.269124
1 15.1541 5.56639 0.558688
1 15.1308 3.65726 2.16673
2 15.198 5.53358 2.55221
1 17.0941 5.57442 2.95652
1 15.1575 5.56554 4.50764
2 17.0336 5.53132 4.89123
1 17.0927 3.65755 5.31248
1 17.1871 5.56532 6.86551
2 17.0576 3.57404 7.24013
1 15.1444 3.6722 7.65542
1 17.0935 3.64539 9.19543
2 15.1974 3.67108 9.58655
1 15.2147 5.55153 9.99782
1 15.1567 3.64527 11.5339
2 15.1374 5.53276 11.9299
1 17.0887 5.6558 12.3084
1 15.1719 5.56763 13.876
2 17.0883 5.53988 14.2887
1 17.0898 3.64392 14.6662
1 17.0889 5.56059 16.2257
2 17.088 3.63935 16.616
1 15.1704 3.63758 17.0026
1 17.0878 3.64043 18.5647
2 15.167 3.64014 18.953
1 15.1669 5.56042 19.3457
1 15.1642 3.64339 20.9031
2 15.165 5.56135 21.2998
1 17.0871 5.56204 21.6832
1 15.1572 5.56101 23.2494
2 17.0934 5.55929 23.6498
1 17.0922 3.61873 24.0269
1 18.0049 5.55438 25.5936
2 17.1108 3.72137 25.9663
1 15.1377 3.6072 26.3601
1 17.0826 3.63461 27.9163
2 15.1954 7.51017 0.228246
1 15.1608 9.40515 0.619134
1 15.0732 7.48419 2.19047
2 15.1981 9.43332 2.56554
1 17.0937 9.39894 2.95779
1 15.1618 9.3996 4.51187
2 17.0575 9.43255 4.90498
1 17.1883 7.48028 5.28814
1 17.0955 9.40036 6.85238
2 17.0333 7.50975 7.27235
1 15.1679 7.48396 7.62962
1 17.0916 7.47622 9.24316
2 15.1072 7.48237 9.56495
1 15.2138 9.41418 9.99827
1 15.2596 7.48231 11.5535
2 15.1375 9.43357 11.9296
1 17.0903 9.3155 12.3099
1 15.1583 9.39475 13.8579
2 17.0599 9.39621 14.3267
1 17.0842 7.4703 14.6066
1 17.8445 9.41444 16.198
2 17.091 7.51785 16.5938
1 15.1544 7.44551 17.018
1 17.0883 7.48424 18.5633
2 15.1668 7.48099 18.9549
1 15.1667 9.40357 19.3448
1 15.1664 7.48205 20.9057
2 15.1671 9.40315 21.2946
1 17.0879 9.40404 21.6847
1 15.1697 9.40652 23.2458
2 17.0878 9.40372 23.6367
1 17.0927 7.49841 24.0141
1 17.0896 9.40671 25.588
2 17.101 7.47838 25.9641
1 15.1402 7.42157 26.3786
1 17.0898 7.47379 27.9242
2 15.168 11.326 0.220528
1 15.1304 13.2304 0.632343
1 15.1679 11.3236 2.17405
2 15.1367 13.2164 2.57552
1 17.0893 13.3395 2.94152
1 15.169 13.2508 4.5605
2 17.1108 13.2219 4.90543
1 17.078 11.3269 5.30137
1 16.9941 13.2444 6.87229
2 17.1194 11.2936 7.24826
1 15.1674 11.4188 7.62342
1 17.0864 11.3317 9.19447
2 15.1669 11.3008 9.60462
1 15.167 13.2458 9.9303
1 15.1635 11.3289 11.5425
2 15.1677 13.2449 11.9181
1 17.0909 13.2402 12.3219
1 15.1597 13.2489 13.8768
2 17.0338 13.2734 14.2575
1 17.186 11.3384 14.648
1 17.1877 13.2449 16.2311
2 17.0372 11.2601 16.6195
1 15.1446 11.3613 17.0198
1 17.0909 11.329 18.5634
2 15.1671 11.3258 18.9567
1 15.1662 13.2463 19.3447
1 15.168 11.3244 20.9068
2 15.1681 13.2452 21.2951
1 17.0882 13.2458 21.6854
1 15.1663 13.2453 23.2468
2 17.088 13.2463 23.6356
1 17.0877 11.3233 24.0264
1 17.0872 13.2378 25.5667