1780
Atoms. Timestep: 505
2 -0.177968 -0.175837 0.0108037
1 -0.173672 1.74114 0.404208
1 -0.192762 -0.180274 1.98788
2 -0.165595 1.74398 2.37985
1 1.74226 1.74143 2.7762
1 -0.170231 1.74478 4.3617
2 1.74387 1.74714 4.75543
1 1.74456 -0.171401 5.1533
1 1.747 1.74319 6.72883
2 1.74177 -0.172888 7.13293
1 -0.166501 -0.179399 7.53273
1 1.74394 -0.172937 9.11589
2 -0.166079 -0.16979 9.51648
1 -0.161361 1.73 9.89355
1 -0.167514 -0.162606 11.4876
2 -0.168642 1.86568 11.8721
1 1.78242 1.61487 12.3352
1 -0.16908 1.79619 13.8647
2 1.74875 1.73218 14.2803
1 1.74257 -0.17641 14.6888
1 1.74509 1.74569 16.2527
2 1.74781 -0.172979 16.6592
1 -0.169226 -0.168436 17.0492
1 1.74807 -0.178931 18.633
2 -0.181482 -0.171673 19.0207
1 -0.119706 1.74679 19.4356
1 -0.299882 -0.205954 20.9662
2 -0.0509456 1.74672 21.428
1 1.74604 2.50287 21.8493
1 -0.187923 1.74644 23.4091
2 1.74671 1.7467 23.6946
1 1.74607 -0.191134 24.2387
1 1.74575 1.7465 25.7672
2 1.74386 -0.168275 26.1748
1 -0.177094 -0.166632 26.5731
1 1.74406 -0.16702 28.1436
2 -0.170818 3.66238 0.00857411
1 -0.169787 5.58039 0.405064
1 -0.166039 3.66377 1.98187
2 -0.169122 5.57991 2.38177
1 1.74585 5.58043 2.78082
1 -0.169231 5.58032 4.35819
2 1.74701 5.58201 4.75651
1 1.74016 3.6655 5.15644
1 1.74879 5.58378 6.73017
2 1.74592 3.6636 7.12392
1 -0.166045 3.66731 7.52966
1 1.76442 3.66746 9.05984
2 -0.165383 3.66251 9.60678
1 -0.170312 5.5979 9.89002
1 0.58864 3.66398 11.4504
2 -0.169774 5.46166 11.8704
1 1.78116 5.7121 12.3324
1 -0.169924 5.53166 13.862
2 1.74712 5.59195 14.2776
1 1.75645 3.65962 14.6646
1 1.71682 5.56898 16.2438
2 1.7455 3.6602 16.6485
1 -0.171332 3.65725 17.0471
1 1.74728 3.67234 18.6301
2 -0.182035 3.66515 19.019
1 -0.16105 5.59171 19.413
1 -0.300071 3.69918 20.9656
2 -0.181866 5.58922 21.4003
1 1.74551 5.59253 21.7953
1 -0.169052 5.57479 23.3786
2 1.74603 5.57942 23.783
1 1.74673 3.68455 24.2381
1 1.74498 5.59107 25.7757
2 1.74601 3.66205 26.1737
1 -0.172173 3.66295 26.567
1 1.74559 3.66021 28.1429
2 -0.170735 7.49648 0.0054128
1 -0.170293 9.41279 0.405111
1 -0.169893 7.49663 1.98323
2 -0.169764 9.41271 2.38267
1 1.74562 9.41317 2.78242
1 -0.16968 9.41369 4.36045
2 1.74677 9.41376 4.75968
1 1.74655 7.49846 5.1573
1 1.74597 9.41409 6.73673
2 1.74566 7.49792 7.13583
1 -0.16843 7.50649 7.53446
1 1.74676 7.50397 9.1131
2 -0.170519 7.49877 9.51319
1 -0.172546 9.4113 9.91849
1 -0.17263 7.48772 11.484
2 -0.175651 9.40566 11.8926
1 1.73351 9.41232 12.2768
1 -0.169351 9.41151 13.8703
2 1.74491 9.41373 14.2727
1 1.74862 7.50402 14.6919
1 1.73238 9.41759 16.2639
2 1.73697 7.48718 16.6601
1 -0.174415 7.49483 17.0512
1 1.73449 7.51536 18.6402
2 -0.175097 7.50383 19.0281
1 -0.179948 9.41554 19.4287
1 -0.176342 7.5 21.0052
2 -0.170657 9.41413 21.4055
1 1.7454 9.4136 21.8053
1 -0.171793 9.40828 23.382
2 1.74511 9.40914 23.7831
1 1.7464 7.49474 24.1828
1 1.74731 9.41069 25.7634
2 1.74515 7.50011 26.1633
1 -0.171177 7.49881 26.5603
1 1.74346 7.49831 28.141
2 -0.170361 11.3291 0.00603189
1 -0.171921 13.2451 0.406064
1 -0.169662 11.3291 1.98358
2 -0.169551 13.2459 2.38302
1 1.74612 13.246 2.78329
1 -0.169756 13.2459 4.36114
2 1.74638 13.2459 4.76075
1 1.74611 11.3297 5.15934
1 1.74484 13.2461 6.73802
2 1.7442 11.3296 7.13709
1 -0.170144 11.3288 7.53808
1 1.74529 11.3296 9.11574
2 -0.169776 11.3275 9.51713
1 -0.169738 13.2453 9.91564
1 -0.172635 11.3293 11.4943
2 -0.170119 13.2457 11.8926
1 1.7467 13.2446 12.2906
1 -0.169554 13.2451 13.8689
2 1.7468 13.247 14.268
1 1.75065 11.3288 14.675
1 1.71895 13.2575 16.2409
2 1.73586 11.3431 16.6533
1 -0.174523 11.335 17.0508
1 1.73344 11.3212 18.6402
2 -0.176564 11.3287 19.0298
1 -0.172935 13.2459 19.4244
1 -0.172918 11.3301 21.0072
2 -0.176566 13.2476 21.4016
1 1.73305 13.2559 21.7912
1 -0.174555 13.2414 23.381
2 1.73557 13.2338 23.7784
1 1.71805 11.3181 24.1894
1 1.74968 13.2476 25.7557
2 1.74335 11.3292 26.1615
1 -0.170453 11.3302 26.5609
1 1.74293 11.3307 28.1403
2 -0.173925 15.1639 0.00806801
1 -0.177366 17.0854 0.406798
1 -0.170297 15.163 1.98389
2 -0.170308 17.0816 2.38373
1 1.74438 17.0827 2.78193
1 -0.169078 17.0804 4.36324
2 1.74647 17.0785 4.76081
1 1.74606 15.1623 5.15965
1 1.74659 17.0786 6.73857
2 1.74494 15.1623 7.13754
1 -0.170332 15.1626 7.5378
1 1.74631 15.1624 9.11604
2 -0.169791 15.162 9.51583
1 -0.169908 17.0784 9.91587
1 -0.169746 15.1621 11.4936
2 -0.169895 17.0786 11.8936
1 1.74579 17.0789 12.2936
1 -0.170149 17.079 13.8717
2 1.74584 17.0801 14.2713
1 1.74762 15.1656 14.6677
1 1.74574 17.0797 16.2492
2 1.74464 15.1658 16.6483
1 -0.171712 15.1667 17.0498
1 1.74654 15.1616 18.6266
2 -0.170007 15.1625 19.026
1 -0.171768 17.0792 19.4239
1 -0.179823 15.1626 21.0017
2 -0.176361 17.0775 21.401
1 1.73353 17.0701 21.7897
1 -0.174371 17.0835 23.3804
2 1.73599 17.0908 23.7776
1 1.73229 15.1625 24.1716
1 1.75069 17.078 25.7556
2 1.74663 15.1627 26.1598
1 -0.168225 15.1635 26.5594
1 1.73377 15.163 28.154
2 -0.177183 19.0008 0.00822244
1 -0.171327 20.9151 0.403736
1 -0.195009 19.0044 1.98821
2 -0.191201 20.922 2.38015
1 1.73684 20.913 2.77693
1 -0.180737 20.9063 4.34904
2 1.73704 20.9084 4.75523
1 1.74113 18.9934 5.16083
1 1.74543 20.9113 6.73424
2 1.74631 18.9951 7.13749
1 -0.170797 18.9956 7.5351
1 1.74401 18.9911 9.11386
2 -0.170685 18.9947 9.51482
1 -0.169263 20.9102 9.91755
1 -0.169597 18.995 11.4938
2 -0.167912 20.9118 11.8945
1 1.74842 20.9132 12.2969
1 -0.168561 20.9108 13.8725
2 1.74798 20.9119 14.2726
1 1.74714 18.9958 14.6705
1 1.7469 20.9108 16.2494
2 1.7465 18.9952 16.648
1 -0.170033 18.9953 17.0482
1 1.74697 18.9951 18.6247
2 -0.169452 18.9947 19.0262
1 -0.169782 20.9089 19.4258
1 -0.170559 18.9951 21.0046
2 -0.170675 20.9106 21.405
1 1.7468 20.9111 21.805
1 -0.171421 20.9139 23.3818
2 1.74494 20.9152 23.7831
1 1.71752 19.0063 24.1899
1 1.74643 20.9126 25.7635
2 1.74242 18.9953 26.1629
1 -0.175102 18.9905 26.5677
1 1.74332 18.9943 28.1411
2 -0.177003 22.828 -0.0018064
1 -0.169865 24.7404 0.404656
1 -0.172772 22.8283 1.97605
2 -0.187042 24.7342 2.38143
1 1.74335 24.7434 2.78391
1 -0.178148 24.7488 4.34736
2 1.74766 24.7445 4.75649
1 1.73791 22.8268 5.15307
1 1.73863 24.7432 6.73008
2 1.74281 22.8292 7.13338
1 -0.161707 22.8238 7.53283
1 1.73999 22.8232 9.11914
2 -0.16686 22.8288 9.51688
1 -0.168826 24.7467 9.92096
1 -0.169208 22.8291 11.4954
2 -0.16784 24.7515 11.8956
1 1.7512 24.7446 12.2939
1 -0.168923 24.7458 13.8703
2 1.74361 24.7437 14.2746
1 1.7447 22.8273 14.6711
1 1.74501 24.7402 16.2553
2 1.74712 22.8261 16.6484
1 -0.169922 22.8242 17.0464
1 1.74634 22.8181 18.6242
2 -0.168119 22.8216 19.0232
1 -0.160193 24.7322 19.4125
1 -0.173735 22.8239 21.002
2 -0.181924 24.7344 21.4005
1 1.74663 24.7307 21.7942
1 -0.168297 24.7518 23.3787
2 1.74694 24.7452 23.7824
1 1.7462 22.8298 24.1825
1 1.74547 24.7337 25.7759
2 1.74881 22.8238 26.1629
1 -0.162813 22.8256 26.555
1 1.74577 22.8254 28.1397
2 3.66357 -0.170075 0.0069782
1 3.6648 1.74709 0.403538
1 3.65529 -0.167671 1.98076
2 3.66094 1.74803 2.37923
1 5.57914 1.74284 2.7829
1 3.65101 1.77617 4.34912
2 5.56505 1.75832 4.75605
1 5.45085 -0.137649 5.19135
1 5.56564 1.75388 6.72729
2 5.56264 -0.157383 7.13624
1 3.64421 -0.185142 7.54028
1 5.54407 -0.0384715 9.07773
2 3.65338 -0.158949 9.51719
1 3.62939 1.75894 9.93007
1 3.69631 -0.182374 11.4846
2 3.67023 1.73579 11.9013
1 5.57709 1.75287 12.3
1 3.67571 1.75073 13.8897
2 5.58534 1.74836 14.2774
1 5.6053 -0.175718 14.6741
1 5.58695 1.74408 16.2527
2 5.58854 -0.173432 16.6445
1 3.66585 -0.168294 17.0472
1 5.59047 -0.162482 18.6077
2 3.679 -0.171196 19.019
1 3.61425 1.74657 19.4347
1 3.79404 -0.2058 20.9651
2 3.54432 1.74548 21.4281
1 5.57147 1.74436 21.8128
1 3.68105 1.74626 23.4089
2 5.58247 1.74575 23.7838
1 5.58677 -0.173322 24.1836
1 5.58378 1.74558 25.7628
2 5.57796 -0.170681 26.1577
1 3.66302 -0.170632 26.5659
1 5.5781 -0.169656 28.1325
2 3.66327 3.66412 0.00772031
1 3.65921 5.58058 0.403906
1 3.66138 3.66302 1.98137
2 3.6578 5.57965 2.38027
1 5.56676 5.57989 2.76841
1 3.66305 5.58179 4.35949
2 5.57868 5.58331 4.76038
1 5.58187 3.67297 5.16074
1 5.56815 5.58351 6.7493
2 5.57696 3.65909 7.14289
1 3.67151 3.65882 7.52571
1 5.56575 3.6729 9.13353
2 3.65469 3.667 9.52047
1 3.64788 5.57756 9.92064
1 3.67414 3.66634 11.51
2 3.67249 5.59228 11.8984
1 5.58354 5.57781 12.2922
1 3.67226 5.56369 13.8834
2 5.5861 5.57639 14.2715
1 5.58771 3.66545 14.6784
1 5.58149 5.58853 16.2416
2 5.58174 3.67027 16.645
1 3.66349 3.66181 17.046
1 5.58541 3.66081 18.6109
2 3.67659 3.66432 19.0201
1 3.6561 5.58432 19.4291
1 3.79439 3.6939 20.9699
2 3.67354 5.58612 21.406
1 5.58821 5.60837 21.8132
1 3.66082 5.57514 23.3787
2 5.57901 5.58144 23.7834
1 5.58787 3.66317 24.1818
1 5.54944 5.5706 25.7536
2 5.57638 3.66027 26.16
1 3.66277 3.65941 26.568
1 5.57764 3.66684 28.1389
2 3.65544 7.498 0.00849613
1 3.65195 9.41289 0.40822
1 3.65824 7.49688 1.98518
2 3.66226 9.41237 2.38324
1 5.57826 9.41123 2.78123
1 3.6624 9.41215 4.35904
2 5.57787 9.4137 4.75765
1 5.58378 7.49618 5.1632
1 5.55054 9.42381 6.7289
2 5.56944 7.50969 7.14124
1 3.6594 7.49966 7.53767
1 5.56788 7.48505 9.12729
2 3.65789 7.49476 9.51366
1 3.66486 9.41706 9.90918
1 3.6846 7.50377 11.4799
2 3.66215 9.41508 11.8805
1 5.57018 9.38933 12.299
1 3.6365 9.41337 13.8181
2 5.57788 9.41102 14.3595
1 5.58098 7.47783 14.6467
1 6.33684 9.41245 16.2038
2 5.57972 7.6147 16.6261
1 3.62757 7.36722 17.0861
1 5.57912 7.54496 18.6178
2 3.65996 7.48791 19.031
1 3.65227 9.41121 19.4155
1 3.66599 7.49901 21.0039
2 3.65712 9.41332 21.3985
1 5.56469 9.41144 21.7906
1 3.66278 9.41318 23.3831
2 5.57927 9.41947 23.7804
1 5.58353 7.49935 24.1876
1 5.56456 9.41519 25.7667
2 5.56855 7.4874 26.1639
1 3.65925 7.49449 26.5625
1 5.56391 7.50697 28.1525
2 3.65582 11.3278 0.010146
1 3.66145 13.2435 0.413454
1 3.6605 11.3281 1.98804
2 3.66261 13.2447 2.38702
1 5.579 13.2459 2.78415
1 3.66239 13.2456 4.36238
2 5.57947 13.2469 4.75964
1 5.57967 11.3325 5.15441
1 5.5784 13.2466 6.73614
2 5.57404 11.3323 7.12962
1 3.65655 11.3348 7.53314
1 5.57289 11.3323 9.09827
2 3.66149 11.3327 9.51093
1 3.66439 13.2481 9.91392
1 3.66341 11.3328 11.4868
2 3.66995 13.2466 11.8902
1 5.58684 13.2523 12.2983
1 3.66158 13.2532 13.8637
2 5.57683 13.2483 14.2709
1 5.57144 11.3446 14.6468
1 5.57073 13.2371 16.2428
2 5.57849 11.2104 16.6247
1 3.62551 11.4589 17.0852
1 5.57666 11.2801 18.6155
2 3.65988 11.3409 19.0271
1 3.66706 13.2527 19.4402
1 3.66308 11.324 20.99
2 3.65878 13.2352 21.4033
1 5.57481 13.2905 21.8157
1 3.62479 13.115 23.3458
2 5.57185 13.3671 23.8084
1 5.58266 11.3337 24.1969
1 5.54767 13.2378 25.7825
2 5.56935 11.3384 26.1681
1 3.65531 11.3261 26.5657
1 5.56613 11.3147 28.1569
2 3.66365 15.1624 0.019143
1 3.66202 17.0811 0.412736
1 3.66535 15.1627 1.98777
2 3.66225 17.0806 2.38638
1 5.57923 17.0801 2.78266
1 3.66164 17.0775 4.3611
2 5.57904 17.0758 4.75911
1 5.57885 15.162 5.15744
1 5.57898 17.0764 6.73788
2 5.57678 15.1618 7.13106
1 3.65871 15.1624 7.53327
1 5.57296 15.1603 9.09942
2 3.6624 15.1627 9.51467
1 3.66323 17.0777 9.91588
1 3.66249 15.1628 11.4942
2 3.65897 17.0792 11.8949
1 5.56521 17.1028 12.3002
1 3.66124 17.0818 13.8765
2 5.579 17.0813 14.2734
1 5.56821 15.1642 14.6782
1 5.58301 17.0846 16.2497
2 5.57275 15.1568 16.6501
1 3.66126 15.1632 17.0488
1 5.57806 15.1624 18.6292
2 3.66249 15.1633 19.0307
1 3.66465 17.0793 19.4241
1 3.65384 15.1668 21.0134
2 3.65928 17.0942 21.3974
1 5.575 17.0359 21.8136
1 3.62456 17.2115 23.3441
2 5.57401 16.961 23.8081
1 6.32955 15.1644 24.2336
1 5.5763 17.0983 25.7891
2 5.57632 15.1657 26.0737
1 3.63927 15.1665 26.6173
1 5.57932 15.1616 28.145
2 3.66189 18.995 0.00584008
1 3.66303 20.9111 0.403873
1 3.66229 18.9967 1.98351
2 3.65907 20.9108 2.38027
1 5.57952 20.9163 2.78465
1 3.64821 20.8834 4.35014
2 5.56604 20.8988 4.75764
1 5.57457 18.9869 5.1571
1 5.58878 20.892 6.73483
2 5.58066 18.9876 7.14048
1 3.66286 18.9951 7.5391
1 5.57852 18.9953 9.11893
2 3.66057 18.992 9.51696
1 3.63682 20.9003 9.92683
1 3.6593 18.9933 11.4962
2 3.66631 20.9089 11.9001
1 5.58331 20.8968 12.3121
1 3.6659 20.9124 13.876
2 5.59606 20.9223 14.2783
1 5.60528 19.004 14.6688
1 5.57849 20.9134 16.2548
2 5.5853 18.9999 16.6463
1 3.66422 18.9959 17.0443
1 5.5828 18.9905 18.6179
2 3.6647 18.9966 19.0179
1 3.66414 20.9121 19.4207
1 3.66491 19.0022 20.9876
2 3.66347 20.9112 21.4036
1 5.578 20.911 21.806
1 3.66243 20.9113 23.3834
2 5.57992 20.9049 23.7797
1 5.57759 18.9888 24.1916
1 5.58013 20.9093 25.7553
2 5.57902 18.9984 26.1628
1 3.65856 19.003 26.5633
1 5.57815 18.9984 28.1416
2 3.66258 22.8277 0.00389476
1 3.65734 24.744 0.401365
1 3.65492 22.8251 1.98016
2 3.65871 24.744 2.37997
1 5.56088 24.7441 2.75627
1 3.66704 24.7435 4.34914
2 5.69762 24.7438 4.73844
1 5.44821 22.7914 5.19418
1 5.61586 24.7451 6.73238
2 5.55809 22.8123 7.13644
1 3.64379 22.8395 7.54058
1 5.54351 22.6974 9.08064
2 3.65092 22.8147 9.51899
1 3.65085 24.7404 9.90759
1 3.67565 22.8284 11.4947
2 3.67353 24.7423 11.8985
1 5.57515 24.7488 12.3642
1 3.65599 24.7449 13.8874
2 5.60049 24.7327 14.2913
1 5.57223 22.825 14.6884
1 5.58101 24.7409 16.2564
2 5.58638 22.8265 16.6605
1 3.66334 22.8256 17.0471
1 5.57155 22.8283 18.6337
2 3.65899 22.8234 19.0231
1 3.65477 24.7337 19.412
1 3.66735 22.8242 21.0023
2 3.67513 24.7349 21.3996
1 5.59054 24.7189 21.8108
1 3.66235 24.7491 23.3777
2 5.58133 24.7419 23.7825
1 5.57826 22.8262 24.1815
1 5.57733 24.7424 25.7596
2 5.57822 22.825 26.1557
1 3.66264 22.8253 26.5587
1 5.57718 22.8267 28.1301
2 7.49691 -0.171564 -0.00894072
1 7.49569 1.75675 0.386856
1 7.49542 -0.149626 1.926
2 7.49562 1.74375 2.38092
1 9.41124 1.73542 2.78213
1 7.49233 1.75327 4.36622
2 9.42436 1.75778 4.75562
1 9.54013 -0.128636 5.19866
1 9.40004 1.77853 6.72734
2 9.42679 -0.144308 7.13844
1 7.49566 -0.208445 7.54083
1 9.44588 -0.032957 9.07755
2 7.49568 -0.287101 9.53981
1 7.49826 1.73103 9.94039
1 7.47722 -0.150521 11.5282
2 7.49419 1.7491 11.9022
1 9.41374 1.758 12.2981
1 7.4948 1.76738 13.8749
2 9.413 1.80277 14.2804
1 9.41644 -0.0560135 14.7273
1 9.41336 1.78045 16.2976
2 9.41288 -0.161491 16.6527
1 7.51555 -0.207173 17.0353
1 9.40945 -0.200743 18.6115
2 7.49713 -0.171789 19.0244
1 7.49877 1.74334 19.4238
1 7.49731 -0.17 21.0046
2 7.48832 1.7444 21.402
1 9.41041 1.74774 21.8022
1 7.4941 1.74663 23.3761
2 9.40863 1.74801 23.78
1 9.41448 -0.171445 24.1783
1 9.38341 1.73687 25.7526
2 9.41258 -0.171996 26.1556
1 7.49472 -0.177811 26.557
1 9.41619 -0.168901 28.1293
2 7.48992 3.66788 0.00306869
1 7.49113 5.57442 0.419748
1 7.49327 3.65525 1.98162
2 7.49662 5.57652 2.3771
1 9.41223 5.57927 2.77738
1 7.47421 5.5806 4.30755
2 9.41385 5.58284 4.8483
1 9.41732 3.65393 5.1298
1 10.1699 5.58081 6.69617
2 9.41131 3.785 7.11646
1 7.46091 3.54126 7.58075
1 9.41172 3.70701 9.11002
2 7.49383 3.64025 9.52243
1 7.48648 5.57399 9.90734
1 7.49909 3.661 11.4907
2 7.49711 5.57652 11.8875
1 9.4124 5.58304 12.2928
1 7.50076 5.57312 13.8681
2 9.4148 5.5848 14.2709
1 9.41337 3.67699 14.6763
1 9.44043 5.57646 16.2471
2 9.4143 3.67993 16.6594
1 7.49747 3.66858 17.045
1 9.40903 3.6702 18.6327
2 7.49513 3.66023 19.027
1 7.48938 5.5701 19.4393
1 7.49115 3.65692 21.0086
2 7.49371 5.57747 21.408
1 9.40136 5.57439 21.7863
1 7.49744 5.57071 23.3842
2 9.41454 5.57686 23.7816
1 9.41765 3.66531 24.1903
1 9.40419 5.58377 25.7623
2 9.40293 3.65719 26.166
1 7.49197 3.66253 26.5586
1 9.40093 3.67598 28.1507
2 7.48454 7.48346 0.0135772
1 7.48492 9.4145 0.400116
1 7.49396 7.49887 1.98115
2 7.49546 9.41296 2.37916
1 9.41196 9.41861 2.77915
1 7.49247 9.42013 4.35711
2 9.41185 9.4156 4.75688
1 9.4117 7.51473 5.13158
1 9.40243 9.40489 6.7259
2 9.4088 7.3799 7.11068
1 7.45858 7.62497 7.57165
1 9.4092 7.43308 9.10116
2 7.49498 7.50055 9.51563
1 7.50558 9.40736 9.91364
1 7.49532 7.48972 11.4847
2 7.48345 9.40618 11.8812
1 9.42653 9.39888 12.2696
1 7.51848 9.41826 13.8132
2 9.40738 9.41175 14.2748
1 9.40557 7.49845 14.676
1 9.42313 9.39924 16.277
2 9.4218 7.48208 16.657
1 7.53039 7.36273 17.0865
1 9.42436 7.50117 18.6424
2 7.49786 7.47877 19.0295
1 7.5071 9.40566 19.4105
1 7.49456 7.49458 20.9971
2 7.49278 9.40909 21.3856
1 9.40702 9.41316 21.7917
1 7.47386 9.41242 23.3244
2 9.40685 9.40993 23.8645
1 9.4137 7.47532 24.1643
1 10.1526 9.44009 25.6961
2 9.40535 7.62989 26.1456
1 7.45662 7.36802 26.6009
1 9.39524 7.54102 28.1515
2 7.49101 11.3432 0.0161722
1 7.49798 13.2502 0.429638
1 7.49653 11.3287 1.98807
2 7.49626 13.2473 2.3941
1 9.41196 13.2463 2.78677
1 7.49632 13.2464 4.36434
2 9.41281 13.2435 4.76391
1 9.4104 11.3278 5.16269
1 9.41229 13.2446 6.7406
2 9.40658 11.3202 7.13863
1 7.49295 11.3309 7.53234
1 9.40913 11.3243 9.11569
2 7.48231 11.3299 9.50463
1 7.54452 13.2482 9.9207
1 7.36535 11.3015 11.4504
2 7.61549 13.2472 11.9149
1 9.41327 14.0018 12.337
1 7.47913 13.2528 13.8938
2 9.41362 13.2412 14.1828
1 9.40413 11.3037 14.7295
1 9.44029 13.2466 16.2433
2 9.42143 11.3389 16.6654
1 7.52722 11.4611 17.0904
1 9.42113 11.3146 18.6395
2 7.49454 11.3404 19.0262
1 7.49572 13.2549 19.445
1 7.46221 11.3154 20.9784
2 7.49111 13.222 21.4096
1 9.39438 13.1285 21.8288
1 7.51437 13.1296 23.3586
2 9.42739 13.2253 23.7823
1 9.43627 11.3372 24.1703
1 9.4103 13.2416 25.7477
2 9.40778 11.2156 26.1435
1 7.46186 11.4564 26.6043
1 9.40664 11.2794 28.1381
2 7.49333 15.1628 0.0201646
1 7.4959 17.0806 0.413122
1 7.49317 15.1665 1.9929
2 7.4966 17.0823 2.38721
1 9.41293 17.0797 2.78297
1 7.49625 17.0781 4.36207
2 9.41351 17.0738 4.75983
1 9.41298 15.1603 5.16093
1 9.41318 17.0756 6.73843
2 9.41277 15.1612 7.14105
1 7.49565 15.1598 7.53501
1 9.41149 15.1762 9.11863
2 7.48286 15.1655 9.50676
1 7.50475 17.0917 9.89933
1 7.36677 15.1984 11.4521
2 7.48096 17.0866 11.8847
1 9.41157 17.0877 12.28
1 7.4932 17.0594 13.8605
2 9.41214 17.0248 14.2695
1 9.41397 15.1707 14.7269
1 9.41142 17.0621 16.303
2 9.4141 15.1473 16.6578
1 7.4786 15.1587 17.0426
1 9.38903 15.1532 18.5811
2 7.49407 15.165 19.0352
1 7.50281 17.0818 19.4267
1 7.49103 15.168 21.0256
2 7.48736 17.1078 21.4028
1 9.38722 17.2044 21.8245
1 7.516 17.2049 23.3591
2 9.41573 17.106 23.7842
1 9.41669 15.1614 24.1689
1 9.40904 17.077 25.7578
2 9.40993 15.156 26.1589
1 7.51697 15.1621 26.6156
1 9.41789 15.1613 28.158
2 7.49574 18.9902 0.00490024
1 7.49683 20.9002 0.389531
1 7.49601 18.9982 1.98522
2 7.49586 20.9131 2.38142
1 9.41253 20.9147 2.78326
1 7.49531 20.8973 4.36732
2 9.42534 20.897 4.75298
1 9.41814 18.9844 5.15472
1 9.39582 20.888 6.72423
2 9.41225 18.9867 7.13879
1 7.49499 18.9894 7.53919
1 9.41081 18.9945 9.11249
2 7.49707 19.009 9.51426
1 7.49619 20.9223 9.92478
1 7.46812 18.9936 11.491
2 7.48449 20.9093 11.8893
1 9.37812 20.758 12.3095
1 7.53864 20.9818 13.8895
2 9.41368 20.637 14.1899
1 9.41573 18.8837 14.7169
1 9.41363 21.111 16.0294
2 9.41222 18.9968 16.6464
1 7.51047 19.0346 17.0363
1 9.40969 19.0379 18.6048
2 7.4957 19.0012 19.0159
1 7.4914 20.9183 19.4194
1 7.46714 19.0131 20.9806
2 7.4957 20.9139 21.4038
1 9.41222 20.9092 21.8049
1 7.49686 20.9096 23.3833
2 9.41447 20.9157 23.7837
1 9.4394 19.0136 24.2063
1 9.41156 20.9193 25.7671
2 9.41384 18.999 26.1689
1 7.49858 19.0005 26.5629
1 9.41364 18.9915 28.1413
2 7.49632 22.8289 -0.00911382
1 7.4966 24.7441 0.397306
1 7.49599 22.8071 1.92646
2 7.49589 24.7442 2.47045
1 9.43087 24.7459 2.75607
1 7.49703 25.5014 4.31505
2 9.29457 24.7485 4.73661
1 9.53711 22.7919 5.18202
1 9.36682 24.7498 6.7252
2 9.4102 22.8127 7.11231
1 7.48055 22.8694 7.5249
1 9.42355 22.6955 9.02524
2 7.4978 22.9453 9.5333
1 8.2504 24.7424 9.95337
1 7.48357 22.8101 11.5247
2 7.4896 24.7441 11.7928
1 9.39211 24.8899 12.354
1 7.5426 24.6656 13.9077
2 9.41549 25.0194 14.2102
1 9.41455 24.544 16.0401
2 9.41295 22.8257 16.8564
1 7.50697 22.8276 17.0933
1 9.41295 22.8285 18.7308
2 7.47556 22.8314 19.062
1 7.48991 24.7461 19.4281
1 7.48352 22.8271 21.0199
2 7.50084 24.7448 21.406
1 9.4136 24.7444 21.8052
1 7.49961 24.7466 23.3859
2 9.414 24.7443 23.7825
1 9.41371 22.8287 24.1808
1 9.41379 24.7446 25.7597
2 9.41402 22.8306 26.1575
1 7.49555 22.8314 26.5555
1 9.41552 22.8284 28.1307
2 11.3303 -0.171086 0.0032975
1 11.3313 1.7387 0.417243
1 11.3377 -0.172303 1.98334
2 11.3305 1.74318 2.38623
1 13.2491 1.74551 2.7794
1 11.3434 1.76714 4.35142
2 13.2511 1.74605 4.7581
1 13.2409 -0.175205 5.1525
1 13.2745 1.73431 6.72901
2 13.2514 -0.182141 7.12526
1 11.3453 -0.18069 7.53043
1 13.2481 -0.172049 9.09882
2 11.339 -0.157587 9.52034
1 11.3551 1.74466 9.94601
1 11.3203 -0.187905 11.5018
2 11.3238 1.73902 11.9029
1 13.2262 1.76906 12.2884
1 11.3314 1.75924 13.8737
2 13.2457 1.74662 14.2752
1 13.2152 -0.168384 14.6894
1 13.2296 1.74573 16.2649
2 13.2293 -0.184285 16.66
1 11.3088 -0.210836 17.0441
1 13.2277 -0.156476 18.6402
2 11.3203 -0.172078 19.0292
1 11.3137 1.74179 19.4243
1 11.324 -0.170363 21.0059
2 11.3283 1.74574 21.4033
1 13.2453 1.73948 21.7998
1 11.325 1.73922 23.3789
2 13.2459 1.74066 23.7779
1 13.2458 -0.16852 24.1861
1 13.2464 1.75425 25.7507
2 13.247 -0.162478 26.1613
1 11.3309 -0.168932 26.556
1 13.2466 -0.168065 28.1361
2 11.3277 3.64794 0.00960023
1 11.3159 5.57328 0.412858
1 11.3309 3.65635 1.97973
2 11.3279 5.57581 2.37352
1 13.2575 5.57803 2.7657
1 11.3514 5.58006 4.3058
2 13.2465 5.5776 4.7536
1 13.2453 3.66224 5.16146
1 13.261 5.57412 6.73152
2 13.254 3.65108 7.14131
1 11.3649 3.53139 7.57815
1 13.2543 3.68172 9.12879
2 11.3301 3.64638 9.52609
1 11.3098 5.56629 9.9178
1 11.3203 3.66447 11.5014
2 11.3278 5.57896 11.8911
1 13.2425 5.57123 12.2959
1 11.3291 5.58287 13.8683
2 13.2433 5.57979 14.2715
1 13.2524 3.66143 14.6791
1 13.2181 5.58851 16.244
2 13.2366 3.67518 16.6554
1 11.3295 3.66723 17.0536
1 13.2339 3.65194 18.643
2 11.3224 3.65871 19.0274
1 11.3321 5.57781 19.4208
1 11.3276 3.65916 20.9986
2 11.3305 5.57927 21.3886
1 13.247 5.58025 21.7971
1 11.3093 5.57102 23.321
2 13.2507 5.57349 23.8627
1 13.2532 3.63741 24.1476
1 14.0173 5.57588 25.7176
2 13.2518 3.76996 26.1338
1 11.2914 3.529 26.5996
1 13.2463 3.7127 28.1278
2 11.3294 7.49753 0.0295695
1 11.3394 9.42053 0.417313
1 11.3297 7.49852 1.98418
2 11.3297 9.41593 2.38796
1 13.2466 9.4115 2.78589
1 11.3314 9.42079 4.36026
2 13.2466 9.41309 4.76295
1 13.2428 7.49468 5.16285
1 13.2652 9.42446 6.73369
2 13.2527 7.49492 7.13582
1 11.3537 7.63775 7.56178
1 13.2217 7.35313 9.08817
2 11.3209 7.4914 9.5137
1 11.3055 9.40721 9.90633
1 11.3402 7.49319 11.4875
2 11.3477 9.40617 11.8925
1 13.2386 9.38452 12.357
1 11.3159 9.41806 13.8828
2 13.2485 9.41088 14.2871
1 13.2452 7.49573 14.6776
1 13.2482 9.41159 16.2539
2 13.2455 7.49664 16.6521
1 11.3323 7.49449 17.0518
1 13.2484 7.49169 18.6265
2 11.3356 7.49841 19.0238
1 11.3381 9.41396 19.4249
1 11.3322 7.49574 20.9907
2 11.3262 9.41681 21.3875
1 13.2589 9.42447 21.788
1 11.3377 9.3893 23.3126
2 13.2314 9.40328 23.7839
1 13.2384 7.50603 24.1599
1 13.2369 9.37181 25.7747
2 13.2515 7.3538 26.146
1 11.3268 7.4899 26.6513
1 13.2627 7.45096 28.153
2 11.3228 11.3457 0.0277232
1 11.3184 13.2526 0.428407
1 11.3253 11.3337 1.99566
2 11.329 13.2506 2.39306
1 13.2463 13.2485 2.78205
1 11.3287 13.2476 4.36312
2 13.246 13.2502 4.75227
1 13.2474 11.3331 5.15247
1 13.2495 13.2538 6.71905
2 13.2485 11.3458 7.12195
1 11.318 11.321 7.52053
1 13.2165 11.4646 9.06078
2 11.3326 11.3406 9.50421
1 11.2538 13.2574 9.93139
1 11.4667 11.2975 11.4524
2 11.2096 13.2483 11.9178
1 13.2357 13.2536 12.3037
1 11.3482 13.2424 13.8964
2 13.2491 13.2451 14.2713
1 13.2524 11.3272 14.6778
1 13.253 13.2455 16.246
2 13.2464 11.3302 16.6478
1 11.3345 11.3276 17.0513
1 13.2511 11.3222 18.6183
2 11.3371 11.3269 19.0249
1 11.3275 13.2305 19.3922
1 11.3208 11.3328 20.9854
2 11.3317 13.3669 21.3729
1 13.2456 13.1077 21.7975
1 11.3452 13.2973 23.3624
2 13.3674 13.2256 23.7656
1 13.12 11.2852 24.2495
1 13.2999 13.2557 25.7594
2 13.2313 11.317 26.1872
1 11.3543 11.4608 26.6226
1 13.2463 11.3279 28.1717
2 11.3251 15.1622 0.0185425
1 11.3315 17.08 0.407553
1 11.3286 15.1679 1.9944
2 11.3296 17.0818 2.38483
1 13.2459 17.0813 2.7839
1 11.3298 17.0779 4.36128
2 13.2452 17.0815 4.76083
1 13.2466 15.1678 5.15397
1 13.2467 17.0805 6.73889
2 13.2489 15.164 7.1306
1 11.3302 15.1605 7.53702
1 13.2523 15.1601 9.1006
2 11.3413 15.1699 9.51013
1 11.3252 17.0959 9.90613
1 11.4606 15.2025 11.4569
2 11.3424 17.094 11.8893
1 13.2597 17.1097 12.2959
1 11.3319 17.0603 13.861
2 13.2472 17.0847 14.2681
1 13.2511 15.167 14.6693
1 13.2406 17.0845 16.2445
2 13.2447 15.164 16.6329
1 11.3336 15.1636 17.0516
1 13.268 15.1638 18.5656
2 11.3311 15.1657 19.1131
1 11.3259 17.1027 19.393
1 12.0892 15.176 20.9529
2 11.3323 16.9648 21.3758
1 13.2858 17.2073 21.8466
1 11.3207 17.0622 23.3629
2 13.235 17.1057 23.7938
1 13.1303 15.2046 24.224
1 13.2245 17.1056 25.7713
2 13.2229 15.1798 26.1707
1 11.3172 15.1647 26.5778
1 13.2339 15.1511 28.154
2 11.3298 18.9948 0.00703799
1 11.3285 20.9112 0.403211
1 11.329 18.9959 1.98281
2 11.3313 20.9105 2.38034
1 13.2499 20.914 2.77886
1 11.3441 20.8861 4.3534
2 13.2532 20.9082 4.75613
1 13.2469 18.9955 5.16332
1 13.2843 20.924 6.73625
2 13.2517 19.0009 7.13877
1 11.3348 18.9964 7.53449
1 13.26 19.0093 9.11719
2 11.3309 18.9964 9.51524
1 11.3436 20.8812 9.90034
1 11.3253 19.0037 11.4987
2 11.3301 21.0391 11.8654
1 13.2615 20.7654 12.3432
1 11.2712 21.0295 13.8643
2 13.2251 20.9093 14.2789
1 13.2176 19.0004 14.6818
1 13.2446 20.914 16.2521
2 13.2396 18.9985 16.6525
1 11.3133 19.0418 17.0357
1 13.2436 19.0021 18.6201
2 11.3272 19.0021 19.0209
1 11.3342 20.9106 19.432
1 11.3297 18.9891 20.9919
2 11.3283 20.9032 21.4067
1 13.2467 20.9088 21.8022
1 11.3305 20.915 23.3804
2 13.2453 20.9167 23.7816
1 13.2409 19.0112 24.1979
1 13.2457 20.9202 25.7654
2 13.246 19.0097 26.1705
1 11.3279 19.0008 26.566
1 13.247 18.9982 28.1431
2 11.3299 22.8277 0.00305992
1 11.335 24.7442 0.400123
1 11.3371 22.8249 1.97955
2 11.3315 24.7425 2.38051
1 13.2436 24.7411 2.7853
1 11.3242 24.7408 4.35301
2 13.2422 24.743 4.75668
1 13.2775 22.8261 5.16699
1 13.2874 24.7281 6.73214
2 13.2385 22.8276 7.11667
1 11.3129 22.842 7.46927
1 13.1505 22.8183 9.01334
2 11.2862 22.8172 9.60753
1 11.3331 24.7667 9.88195
1 12.0837 22.8278 11.4335
2 11.3314 24.615 11.86
1 13.2803 24.868 12.3473
1 11.2843 24.6311 13.8705
2 13.2221 24.7433 14.2831
1 13.2455 22.8203 14.6753
1 13.2088 24.73 16.2505
2 13.2367 22.8241 16.6551
1 11.3171 22.8211 17.0967
1 13.252 22.8291 18.635
2 11.3497 22.8265 19.0651
1 11.3336 24.7439 19.4293
1 11.3464 22.827 21.0229
2 11.3283 24.7456 21.4063
1 13.2454 24.7474 21.8055
1 11.3296 24.7458 23.3838
2 13.2449 24.7467 23.7837
1 13.2466 22.8304 24.1821
1 13.2462 24.7465 25.7616
2 13.2469 22.8318 26.1606
1 11.3312 22.8298 26.5576
1 13.2464 22.8278 28.1377
2 15.1628 -0.171307 0.00580646
1 15.1576 1.73907 0.418372
1 15.1589 -0.175887 1.98681
2 15.159 1.74275 2.38491
1 17.0692 1.74228 2.764
1 15.1641 1.74656 4.35838
2 17.0792 1.75066 4.755
1 17.0864 -0.158216 5.15389
1 17.0662 1.75085 6.7376
2 17.0712 -0.177407 7.13417
1 15.1614 -0.18768 7.52854
1 17.0551 -0.0842976 9.10816
2 15.1493 -0.172727 9.49921
1 15.1463 1.76905 9.89769
1 15.0573 -0.130865 11.4302
2 15.1503 1.75841 11.873
1 17.0743 1.76635 12.2771
1 15.1413 1.73418 13.8138
2 17.0781 1.74614 14.364
1 17.0786 -0.171837 14.7115
1 17.8349 1.75906 16.2172
2 17.0778 -0.0480537 16.6449
1 15.1223 -0.29784 17.0951
1 17.0782 -0.122965 18.6237
2 15.1569 -0.182618 19.038
1 15.1539 1.74505 19.4212
1 15.1639 -0.170351 21.0077
2 15.1626 1.74643 21.4007
1 17.0801 1.74807 21.8026
1 15.1664 1.73769 23.3786
2 17.0814 1.74569 23.7801
1 17.0784 -0.172981 24.1797
1 17.1078 1.73511 25.7522
2 17.0825 -0.17242 26.1604
1 15.1638 -0.169545 26.5591
1 17.0802 -0.169473 28.1383
2 15.1649 3.6494 0.0120199
1 15.1753 5.57859 0.398997
1 15.1611 3.66198 1.98338
2 15.1674 5.57808 2.37591
1 17.0797 5.57674 2.77912
1 15.1612 5.57879 4.3556
2 17.0767 5.5794 4.7513
1 17.084 3.66144 5.15658
1 17.0477 5.58464 6.71453
2 17.0705 3.67432 7.14055
1 15.1624 3.66738 7.53964
1 17.0697 3.66439 9.12952
2 15.1618 3.6822 9.51361
1 15.1714 5.59422 9.92486
1 15.1579 3.67334 11.4857
2 15.1619 5.57993 11.8965
1 17.0818 5.57856 12.2941
1 15.1588 5.58193 13.8735
2 17.0776 5.58146 14.2711
1 17.0783 3.6806 14.6462
1 17.0793 5.56981 16.243
2 17.079 3.55198 16.6288
1 15.1248 3.79755 17.0885
1 17.0792 3.61563 18.62
2 15.1605 3.67423 19.0313
1 15.1627 5.58407 19.4376
1 15.1649 3.66054 20.9996
2 15.1625 5.58216 21.3965
1 17.0917 5.58061 21.7917
1 15.1851 5.58057 23.3274
2 17.0792 5.57991 23.7852
1 17.074 3.66421 24.1869
1 17.0948 5.57735 25.7733
2 17.0887 3.65027 26.1649
1 15.1999 3.52796 26.5994
1 17.0916 3.67127 28.1521
2 15.1735 7.51033 0.0184628
1 15.1726 9.4135 0.439185
1 15.1664 7.49346 1.99182
2 15.1632 9.41348 2.39776
1 17.0803 9.41348 2.78718
1 15.163 9.41233 4.36456
2 17.0799 9.41435 4.7648
1 17.0781 7.49948 5.15514
1 17.0893 9.41418 6.74246
2 17.0802 7.48703 7.12983
1 15.1646 7.55419 7.54944
1 17.1175 7.36682 9.07638
2 15.1665 7.61457 9.54151
1 15.9176 9.41348 9.96085
1 15.1667 7.4787 11.5207
2 15.1645 9.41209 11.8061
1 17.1003 9.41253 12.3501
1 15.1667 9.41385 13.8837
2 17.0793 9.41049 14.2865
1 17.0798 7.49156 14.6831
1 17.0774 9.41108 16.2544
2 17.0801 7.4874 16.6535
1 15.1632 7.4921 17.0442
1 17.0809 7.49026 18.6253
2 15.1641 7.4906 19.02
1 15.1646 9.39735 19.4016
1 15.1655 7.50144 20.9992
2 15.1695 9.41095 21.3992
1 17.082 9.40764 21.8059
1 15.1615 9.40043 23.3867
2 17.0921 9.40176 23.7841
1 17.0787 7.4926 24.1937
1 17.0961 9.41785 25.7593
2 17.0892 7.50763 26.1704
1 15.2017 7.61358 26.6045
1 17.095 7.48642 28.1551
2 15.1668 11.3163 0.0145276
1 15.1547 13.2463 0.401385
1 15.1667 11.3336 1.99193
2 15.1623 13.2478 2.37964
1 17.0795 13.2475 2.77983
1 15.1632 13.2474 4.3586
2 17.0793 13.249 4.75282
1 17.0776 11.3304 5.1577
1 17.0778 13.2529 6.72157
2 17.0829 11.3433 7.13017
1 15.1683 11.2844 7.54331
1 17.1153 11.4598 9.07733
2 15.1619 11.2112 9.5386
1 15.1612 13.2385 9.92569
1 15.1622 11.3477 11.521
2 15.1555 13.2494 11.8937
1 17.0812 13.2537 12.2945
1 15.1612 13.2517 13.8695
2 17.0771 13.2457 14.2705
1 17.0806 11.3312 14.6775
1 17.0822 13.2467 16.2488
2 17.0822 11.3299 16.6476
1 15.1649 11.3329 17.0419
1 17.0833 11.33 18.6173
2 15.1656 11.3285 19.0071
1 15.1603 13.2471 19.4229
1 15.1937 11.296 20.9351
2 15.1715 13.2301 21.4795
1 17.1011 13.2434 21.7778
1 15.1354 13.9984 23.2885
2 16.9515 13.2479 23.8485
1 17.2045 11.282 24.1959