1779
Atoms. Timestep: 381
2 -0.185168 -0.157411 0.208729
1 -0.0608003 1.76382 0.572777
1 -0.114018 -0.169626 2.15406
2 -0.188276 1.73734 2.54971
1 1.76008 1.76488 2.88785
1 -0.135662 1.85383 4.56141
2 1.82132 1.73635 4.86351
1 1.74182 -0.160533 5.28364
1 1.63545 1.73695 6.85735
2 1.90265 -0.167807 7.21164
1 1.69598 -0.142822 9.12449
2 -0.148884 -0.165611 9.70134
1 -0.175105 1.77687 9.90256
1 -0.151901 -0.15406 11.5516
2 -0.178105 1.72941 11.9141
1 1.76148 1.87522 12.3203
1 -0.129556 1.80639 13.8876
2 1.74412 1.62768 14.2438
1 1.77863 -0.166209 14.6775
1 1.82991 1.84844 16.1897
2 1.68605 -0.144254 16.6257
1 -0.184168 -0.183116 17.0027
1 1.77452 -0.144464 18.6047
2 -0.139036 -0.116955 18.9541
1 -0.141309 1.77191 19.3446
1 -0.0629459 -0.150826 20.9804
2 -0.179351 1.81793 21.296
1 1.76376 1.67186 21.6846
1 -0.147191 1.66892 23.2845
2 1.75909 1.79093 23.5727
1 1.66536 -0.0978321 24.0427
2 1.81638 -0.257079 26.0167
1 -0.15672 -0.238565 26.3096
1 1.76018 -0.0464137 27.9508
2 -0.182322 3.71031 0.207488
1 -0.152738 5.59521 0.584357
1 -0.144573 3.67372 2.19294
2 -0.149649 5.61358 2.5254
1 1.76138 5.58523 2.93524
1 -0.150436 5.50073 4.50606
2 1.79193 5.61849 4.88522
1 1.66314 3.67422 5.27639
1 1.76023 5.58667 6.83753
2 1.80946 3.70013 7.25942
1 -0.206989 3.59912 7.6171
1 1.77359 3.67237 9.22912
2 -0.0710112 3.69356 9.58729
1 -0.173033 5.55495 9.97256
1 -0.0723183 3.67951 11.539
2 -0.177855 5.63905 11.9287
1 1.78159 5.50513 12.313
1 -0.121447 5.54541 13.8886
2 1.76652 5.71986 14.2678
1 1.72839 5.51579 16.1799
2 1.83453 3.71273 16.696
1 1.70927 3.67037 18.5324
2 -0.150495 3.67764 19.056
1 -0.148966 5.58292 19.3407
1 -0.152665 3.68426 20.927
2 -0.151691 5.59129 21.3074
1 1.75431 5.58348 21.7068
1 -0.151803 5.59389 23.2637
2 1.7377 5.61525 23.6534
1 1.86337 3.62689 24.0947
1 1.77103 5.60607 25.6006
2 1.73977 3.80945 26.0265
1 -0.129874 3.63912 26.3914
1 1.76193 3.56653 27.9516
2 -0.14969 7.50534 0.191459
1 -0.150815 9.41799 0.583748
1 -0.150489 7.50516 2.14515
2 -0.149119 9.39545 2.52985
1 1.76391 9.43278 2.93753
1 -0.149485 9.51376 4.55867
2 1.78633 9.34721 4.87038
1 1.75949 7.50072 5.28473
1 1.67101 9.42192 6.84601
2 1.79062 7.47219 7.23703
1 -0.147621 7.61132 7.63353
1 1.7469 7.5434 9.20761
2 -0.149743 7.3689 9.57208
1 -0.147862 7.56482 11.4809
2 -0.150072 9.41708 12.0279
1 1.77677 9.39726 12.298
1 -0.157215 9.41797 13.9033
2 1.73076 9.39411 14.2665
1 1.76507 7.5192 14.6645
1 1.79751 9.43884 16.2284
2 1.7628 7.4964 16.6155
1 -0.165569 7.52964 17.0028
1 1.75935 7.49935 18.5699
2 -0.147475 7.50174 18.9667
1 -0.149652 9.41879 19.3535
1 -0.152522 7.5 20.9173
2 -0.179214 9.38859 21.3082
1 1.76134 9.50626 21.6949
1 -0.148788 9.42433 23.2616
2 1.76279 9.39482 23.6731
1 1.76148 7.50292 24.0498
1 1.7632 9.41729 25.613
2 1.764 7.50611 26.0048
1 -0.149952 7.5046 26.3921
1 1.76376 7.50531 27.9573
2 -0.1543 11.3313 0.205885
1 -0.158292 13.2459 0.587531
1 -0.146336 11.3285 2.19554
2 -0.122509 13.2408 2.52244
1 1.75685 13.2298 2.941
1 -0.1548 13.162 4.4975
2 1.74306 13.32 4.8682
1 1.76342 11.3344 5.24936
1 1.86046 13.2408 6.84029
2 1.76436 11.3344 7.27328
1 -0.156427 11.2195 7.58381
1 1.74122 11.3008 9.19513
2 -0.150047 11.4807 9.56846
1 -0.14944 13.3163 10.0268
1 -0.154163 11.2652 11.4791
2 -0.154807 13.1269 11.9409
1 1.7276 13.2666 12.317
1 -0.154671 13.2645 13.8644
2 1.73857 13.2726 14.2827
1 1.87569 11.3328 14.6673
1 1.80662 13.2196 16.2802
2 1.62818 11.3105 16.6016
1 -0.184184 11.3095 17.0076
1 1.81253 11.427 18.5762
2 -0.199107 11.3084 18.952
1 -0.0428346 13.2414 19.3534
1 -0.0489516 11.3335 20.9249
2 -0.242475 13.2518 21.3154
1 1.75968 13.234 21.6184
1 -0.138568 13.2456 23.2523
2 1.76341 13.2475 23.6978
1 1.76455 11.3306 24.0007
1 1.76434 13.2474 25.6171
2 1.76397 11.3311 25.99
1 -0.14674 11.3286 26.3962
1 1.76282 11.333 27.9543
2 -0.095248 15.1322 0.181232
1 -0.253284 17.0666 0.578392
1 -0.240158 15.1642 2.15304
2 -0.10025 17.1013 2.55181
1 1.75813 17.0763 2.93671
1 -0.150996 17.0695 4.49065
2 1.74773 17.0862 4.87315
1 1.78013 15.1696 5.28581
1 1.85447 17.0543 6.84485
2 1.69111 15.1567 7.23156
1 -0.157516 15.1585 7.61604
1 1.75712 15.1565 9.189
2 -0.148355 15.1625 9.48564
1 -0.151241 17.0138 10.0248
2 -0.149927 17.1755 11.9419
1 1.7382 17.046 12.3108
1 -0.147605 17.0566 13.8647
2 1.76501 17.0782 14.2727
1 1.75749 15.1617 14.6581
1 1.76492 17.0752 16.2238
2 1.76343 15.1811 16.6053
1 -0.146052 15.1562 17.0134
1 1.76246 15.0733 18.6339
2 -0.17705 15.1539 18.9496
1 -0.217306 17.0753 19.3621
1 -0.0259313 15.1896 20.9356
2 -0.266986 17.0985 21.3093
1 -0.0882988 17.0625 23.2044
2 1.72877 17.0624 23.7772
1 1.76088 15.1666 23.9863
1 1.77348 17.0727 25.6236
2 1.7671 15.1591 25.9878
1 -0.149287 15.1694 26.3971
1 1.77085 15.1548 27.9512
2 -0.153171 18.9867 0.195512
1 -0.0549775 20.9025 0.583404
1 -0.148083 18.991 2.14434
2 -0.188156 20.9027 2.5733
1 1.75946 20.901 2.87065
1 -0.13065 20.8998 4.55764
2 1.78346 20.8998 4.7497
1 1.76288 19.0513 5.34287
2 1.75308 18.8728 7.25226
1 -0.126132 19.1119 7.60504
1 1.76034 19.007 9.16722
2 -0.151089 18.95 9.59655
1 -0.146342 20.8992 9.92186
1 -0.150203 18.9979 11.5342
2 -0.150126 20.9036 11.9143
1 1.76344 20.8999 12.3168
1 -0.151435 20.9005 13.8796
2 1.76398 20.9014 14.2713
1 1.76396 18.9871 14.6624
1 1.75946 20.897 16.2263
2 1.76412 18.9847 16.6189
1 -0.150139 18.9829 17.0131
1 1.76753 18.9869 18.5759
2 -0.124259 19.0173 18.9616
1 -0.150067 20.9004 19.3565
1 -0.126914 18.9667 20.9224
2 -0.150641 20.897 21.3109
1 1.76491 20.8898 21.7052
1 -0.155161 20.9031 23.2628
2 1.73194 20.9315 23.6667
1 1.85621 18.9794 24.0174
1 1.7725 20.8951 25.6522
2 1.74005 18.9649 26.0002
1 -0.15329 18.9859 26.4005
1 1.76608 19.0831 27.9678
2 -0.195089 22.8161 0.209181
1 -0.14579 24.7273 0.553449
1 -0.117802 22.8309 2.15598
2 -0.250463 24.7278 2.514
1 -0.0900808 24.7312 4.44406
2 1.76704 24.7108 4.98263
1 1.75575 22.7557 5.32938
1 1.73694 24.7648 6.85768
2 1.78966 22.959 7.25035
1 -0.116047 22.6919 7.60395
1 1.76135 22.7888 9.16955
2 -0.151352 22.8381 9.59679
1 -0.15006 24.7358 9.9605
1 -0.150475 22.8164 11.5359
2 -0.150259 24.726 11.9259
1 1.76094 24.7276 12.3138
1 -0.160628 24.7286 13.8909
2 1.74098 24.7254 14.2517
1 1.76986 22.816 14.6655
1 1.85385 24.7273 16.235
2 1.72822 22.7836 16.6177
1 -0.178911 22.85 17.0048
1 1.76937 22.8162 18.5684
2 -0.117443 22.7837 18.9617
1 -0.23727 24.7294 19.3423
1 -0.159078 22.8093 20.9123
2 -0.153613 24.6711 21.3209
1 1.7634 24.8274 21.6997
1 -0.155006 24.8248 23.3449
2 1.81981 24.6797 23.6556
1 1.75735 22.8145 24.0503
1 1.68387 24.7165 25.6054
2 1.78981 22.8086 25.9868
1 -0.165251 22.9274 26.3773
1 1.75699 22.7295 27.9649
2 3.71123 -0.182622 0.19328
1 3.58669 1.76252 0.571251
1 3.63794 -0.163825 2.15365
2 3.69955 1.76278 2.55346
1 5.58475 1.76456 2.93623
1 3.68638 1.7611 4.49544
2 5.5964 1.76528 4.88891
1 5.58748 -0.143189 5.28139
1 5.58835 1.75969 6.84103
2 5.59642 -0.14956 7.23278
1 3.69583 -0.152544 7.62648
1 5.58175 -0.152932 9.18537
2 3.66195 -0.14824 9.5774
1 3.67061 1.76573 9.97444
1 3.67893 -0.153667 11.5316
2 3.70648 1.72868 11.9349
1 5.58889 1.76839 12.3214
1 3.64867 1.80024 13.9334
2 5.58129 1.73041 14.2552
1 5.57307 -0.154602 14.6701
1 5.50341 1.76629 16.2353
2 5.6627 -0.149569 16.6119
1 3.67688 -0.148771 16.9717
1 5.58757 -0.149637 18.5598
2 3.70345 -0.15242 18.9937
1 3.66902 1.76474 19.3096
1 3.5937 -0.152654 20.9376
2 3.70599 1.77741 21.2786
1 5.58741 1.75863 21.7203
1 3.69038 1.8261 23.2974
2 5.62458 1.8344 23.6424
1 5.57975 1.71074 25.5539
2 5.58693 -0.150549 26.0942
1 3.66798 -0.109831 26.3774
1 5.5913 -0.153793 27.9648
2 3.70693 3.71047 0.185057
1 3.68025 5.59429 0.586872
1 3.6712 3.67493 2.14512
2 3.67476 5.58954 2.5403
1 5.58836 5.59294 2.92953
1 3.67713 5.59318 4.49326
2 5.5661 5.59106 4.87163
1 5.59682 3.67892 5.28055
1 5.68356 5.59089 6.853
2 5.56267 3.64533 7.22958
1 3.68018 3.67719 7.62657
1 5.59163 3.68563 9.18155
2 3.7024 3.68616 9.56845
1 3.66972 5.6457 10.0245
1 3.58582 3.66556 11.5456
2 3.71246 5.52056 11.9396
1 5.57753 5.6172 12.3129
1 3.6502 5.57164 13.8717
2 5.55694 5.61526 14.2704
1 5.6743 3.67502 14.6544
1 5.60027 5.58978 16.2198
2 5.59897 3.70904 16.6364
1 3.67868 3.58336 16.9892
1 5.58286 3.67298 18.5734
2 3.66245 3.69906 18.987
1 3.68913 5.59003 19.3677
1 3.70968 3.70355 20.9757
2 3.57373 5.61464 21.2761
1 3.72482 5.49447 23.2178
2 5.51773 5.6235 23.7676
1 5.52732 3.71836 24.0063
1 5.59967 5.58637 25.61
2 5.60669 3.66488 26.0148
1 3.65257 3.63551 26.3375
1 5.59211 3.68043 27.9541
2 3.67912 7.5032 0.192669
1 3.68089 9.41786 0.585672
1 3.67649 7.50231 2.14806
2 3.68442 9.39703 2.52483
1 5.64721 9.42845 2.97365
1 3.67233 9.50385 4.49902
2 5.52006 9.38365 4.89993
1 5.6292 7.51819 5.27461
1 5.60075 9.42227 6.82317
2 5.55655 7.5345 7.23706
1 3.6753 7.5029 7.61369
1 5.58453 7.49822 9.19943
2 3.67358 7.50245 9.48309
1 3.67228 9.35823 10.0229
2 3.6758 9.4998 11.9251
1 5.56526 9.39624 12.3143
1 3.6769 9.495 13.8828
2 5.62435 9.3895 14.2818
1 5.58755 7.50461 14.6585
1 5.5798 9.4612 16.2887
2 5.59013 7.48395 16.6011
1 3.67814 7.51535 17.0111
1 5.5909 7.59321 18.5896
2 3.64148 7.47543 18.9608
1 3.76603 9.4215 19.3321
1 3.71536 7.48724 20.9187
2 3.68188 9.38446 21.3253
1 5.59432 9.41086 21.6544
1 3.67448 9.42584 23.2641
2 5.58832 9.41976 23.6481
1 5.62576 7.47866 24.0222
1 5.59338 9.41666 25.6128
2 5.58272 7.50193 25.9977
1 3.67743 7.50357 26.3931
1 5.61023 7.53394 27.9641
2 3.675 11.331 0.204299
1 3.69191 13.2466 0.59743
1 3.70724 11.3537 2.20689
2 3.5728 13.2704 2.51041
1 3.73707 13.149 4.50516
2 5.64932 13.2739 4.97062
1 5.51794 11.322 5.24402
1 5.48922 13.2319 6.85451
2 5.64156 11.3042 7.24879
1 3.68368 11.4293 7.56489
1 5.58395 11.3415 9.18821
2 3.67072 11.2958 9.6012
1 3.70061 13.241 9.94088
1 3.70859 11.3617 11.5899
2 3.53051 13.2436 11.8768
1 3.74981 13.1568 13.8261
2 5.62625 13.26 14.4087
1 5.49411 11.3379 14.6557
1 5.57859 13.2029 16.3053
2 5.62592 11.3305 16.5539
1 5.59575 11.3299 18.4992
2 3.66626 11.296 19.0399
1 3.67349 13.2438 19.3175
1 3.5926 11.3314 20.9255
2 3.71463 13.2084 21.3472
1 5.60079 13.3448 21.6389
1 3.67183 13.2524 23.2552
2 5.58856 13.2292 23.6665
1 5.58939 11.3307 24.0497
1 5.59137 13.2333 25.6095
2 5.58867 11.3327 26.0027
1 3.67725 11.3332 26.3948
1 5.60972 11.3052 27.9682
2 3.6681 15.157 0.193304
1 3.69951 17.0698 0.598639
1 3.73789 15.162 2.16423
2 3.57326 17.0697 2.53125
1 3.72831 17.074 4.4885
2 5.59055 17.0732 4.94277
1 5.58351 15.1694 5.26534
1 5.58542 17.0743 6.93293
2 5.63586 15.0938 7.2219
1 3.67636 15.1701 7.5943
1 5.58127 15.255 9.23843
2 3.62148 15.1335 9.60767
1 3.76927 17.0734 9.9132
1 3.80217 15.1364 11.555
2 3.62196 17.0979 11.9337
1 5.58698 16.9975 12.2581
1 3.67895 17.0693 13.8773
2 5.58859 17.0948 14.2792
1 5.59318 15.1543 14.6016
1 5.59421 17.0752 16.2242
2 5.59313 15.1789 16.5917
1 3.67852 15.1407 17.0113
1 5.59442 15.0652 18.6347
2 3.67779 15.23 18.9189
1 3.66014 17.0733 19.3768
1 3.64765 15.1767 20.9485
2 3.78664 17.117 21.2754
1 5.60534 16.9922 21.6867
1 3.61674 17.1531 23.2233
2 5.61355 17.0673 23.5761
1 5.59304 15.2119 24.0548
2 5.59001 15.0556 26.0124
1 3.6969 15.1885 26.3855
1 5.59088 15.1752 27.9506
2 3.7027 18.9619 0.183395
1 3.59064 20.9031 0.580149
1 3.69641 18.9652 2.15283
2 3.67216 20.8671 2.56017
1 5.59403 20.9955 2.92806
1 3.67304 20.9045 4.50757
2 5.56537 20.8446 4.89958
1 5.58853 18.9636 5.27882
1 5.59305 20.9159 6.8348
2 5.5932 19.0806 7.22554
1 3.66061 18.915 7.60628
1 5.58964 18.8852 9.19036
2 3.6512 19.0355 9.59619
1 3.67165 20.9074 9.96837
1 3.68194 18.9863 11.5322
2 3.67683 20.9025 11.925
1 5.58749 20.8978 12.3168
1 3.67707 20.9003 13.8795
2 5.58642 20.9005 14.2701
1 5.59067 18.9898 14.6645
1 5.62307 20.9158 16.2333
2 5.59162 18.9902 16.6189
1 3.6779 18.9859 17.0096
1 5.59098 18.9876 18.5715
2 3.68306 18.9877 18.9718
1 3.67756 20.8988 19.3552
1 3.64141 18.9737 20.9722
2 3.67789 20.9211 21.2942
1 5.58954 20.8944 21.7052
1 3.67874 20.8096 23.2748
2 5.61988 20.9217 23.6546
1 5.4947 18.9266 24.0949
1 5.58854 20.9113 25.6035
2 5.61472 19.0927 26.0399
1 3.69707 18.9612 26.3385
1 5.59566 18.9641 27.949
2 3.68723 22.8444 0.173994
1 3.67424 24.726 0.603609
1 3.73136 22.8323 2.16572
2 3.74791 24.7612 2.52602
1 5.59875 24.6267 2.92706
1 3.61848 24.7245 4.44153
2 5.55166 24.783 4.8979
1 5.68454 22.8152 5.21446
1 5.59598 24.7258 6.83925
2 5.56467 22.8175 7.24359
1 3.65573 22.7853 7.61871
1 5.58668 22.8162 9.18695
2 3.6771 22.8202 9.5816
1 3.67734 24.7297 9.97128
1 3.67671 22.8151 11.5339
2 3.67401 24.7273 11.9365
1 5.58198 24.729 12.3152
1 3.67771 24.7291 13.9266
2 5.61295 24.7285 14.2518
1 5.60047 22.8168 14.6787
1 5.52386 24.7072 16.2466
2 5.51795 22.7799 16.6016
1 3.66518 22.9072 17.0002
1 5.64535 22.821 18.5179
2 3.68726 22.7922 18.976
1 3.67161 24.726 19.3128
1 3.68038 22.8128 20.9167
2 3.70632 24.6941 21.2972
1 5.59479 24.7408 21.7151
1 3.70022 24.7614 23.2657
2 5.59019 24.6269 23.6394
1 5.5924 22.8058 24.0506
1 5.59142 24.7849 25.5589
2 5.59299 22.8267 26.0123
1 3.67828 22.8064 26.3935
1 5.59535 22.8201 28.0003
2 7.48312 -0.148862 0.174558
1 7.51862 1.76368 0.591965
1 7.60316 -0.141959 2.15605
2 7.4358 1.76811 2.53745
1 9.44784 1.79963 2.89225
1 7.51166 1.76127 4.48343
2 9.38811 1.73629 4.94261
1 9.41861 -0.153985 5.23278
1 9.42583 1.75703 6.88696
2 9.41803 -0.175588 7.21258
1 7.50826 -0.14444 7.6265
1 9.4187 -0.0558719 9.25092
2 7.44944 -0.179958 9.56414
1 7.60363 1.75784 9.96223
1 7.60325 -0.150567 11.539
2 7.44911 1.76749 11.9196
1 9.40649 1.6763 12.2574
1 7.50941 1.84916 13.8857
2 9.45617 1.75923 14.279
1 9.43895 -0.150351 14.6329
1 9.44264 1.74579 16.2317
2 9.31623 -0.150441 16.5881
1 7.50322 -0.154804 17.0141
1 9.4719 -0.148342 18.5168
2 7.51308 -0.149016 18.9663
1 7.51191 1.7667 19.3602
1 7.50013 -0.154674 20.9205
2 7.47669 1.73566 21.3067
1 9.41898 1.85629 21.6891
1 7.491 1.74252 23.2681
2 9.41597 1.74323 23.6713
1 9.41491 -0.154356 24.0516
1 9.41671 1.76021 25.6107
2 9.41986 -0.147246 26.0176
1 7.49549 -0.150112 26.3763
1 9.41851 -0.150488 28.0028
2 7.48684 3.67307 0.178461
1 7.50734 5.571 0.594342
1 7.57284 3.68085 2.15394
2 7.48294 5.63068 2.54956
1 9.45539 5.46038 2.90766
1 7.50112 5.59287 4.53424
2 9.3888 5.64983 4.85461
1 9.50897 3.68843 5.22261
1 9.42467 5.59294 6.86804
2 9.39383 3.62934 7.22385
1 7.50125 3.76375 7.62105
1 9.41869 3.60439 9.19051
2 7.47299 3.68379 9.61104
1 7.50188 5.59597 9.9229
1 7.50927 3.6774 11.5788
2 7.50587 5.61175 11.8973
1 9.41653 5.58467 12.3203
1 7.50317 5.49698 13.8894
2 9.44909 5.62017 14.2707
1 9.32484 3.67856 14.6574
1 9.41185 5.58917 16.2232
2 9.4412 3.67562 16.646
1 7.50764 3.68035 16.9616
1 9.41933 3.67818 18.622
2 7.48431 3.67298 18.9338
1 7.49753 5.58382 19.3574
1 7.56788 3.70886 20.958
2 7.57625 5.62249 21.1981
1 9.36754 5.4967 21.7431
2 9.4959 5.61236 23.6695
1 9.39575 3.69936 23.9955
1 9.49806 5.58656 25.609
2 9.39102 3.64333 26.0058
1 7.50286 3.67778 26.3909
1 9.42906 3.68267 28.0131
2 7.48344 7.36304 0.176
1 7.5104 7.57869 2.09971
2 7.48647 9.42131 2.57427
1 9.3569 9.41799 2.92372
2 9.52359 9.41618 4.88853
1 9.3875 7.52459 5.28225
1 9.40178 9.42842 6.82405
2 9.42485 7.57755 7.23961
1 7.50269 7.41374 7.60741
1 9.41844 7.49122 9.1811
2 7.50708 7.53005 9.59181
1 7.51168 9.42459 9.97614
1 7.49719 7.5053 11.5328
2 7.47205 9.39033 11.928
1 9.41734 9.51342 12.305
1 7.50952 9.42642 13.8799
2 9.42277 9.39371 14.2869
1 9.42168 7.50541 14.6663
1 9.38951 9.43743 16.2365
2 9.41812 7.50606 16.618
1 7.50182 7.51517 17.0121
1 9.42215 7.50143 18.5718
2 7.54026 7.47483 18.9665
1 7.41054 9.42654 19.3282
1 7.46379 7.48126 20.9399
2 7.53007 9.41774 21.3208
1 9.42342 9.42635 21.7053
1 7.49896 9.41109 23.2629
2 9.36616 9.3873 23.6505
1 9.40076 7.486 24.0475
1 9.51412 9.42123 25.6721
2 9.35171 7.48228 25.9873
1 7.49769 7.52687 26.4083
1 9.39682 7.62684 27.9688
2 7.48437 11.4703 0.176995
1 7.48895 13.2635 0.603319
1 7.4858 11.2814 2.11039
2 7.61121 13.2378 2.5188
1 9.4321 13.2533 2.93709
1 7.45359 13.24 4.43702
2 9.37701 13.2127 4.88446
1 9.39142 11.3086 5.27329
1 9.42693 13.2407 6.83402
2 9.4231 11.3351 7.24832
1 7.51113 11.3265 7.61996
1 9.41874 11.3323 9.23439
2 7.48491 11.3312 9.55866
1 7.49422 13.2393 10.0009
1 7.57167 11.3442 11.5526
2 7.5709 13.215 11.9096
1 9.43512 13.25 12.2924
1 7.44912 13.2537 13.8127
2 9.37997 13.2218 14.3116
1 9.39998 11.3273 14.6322
1 9.39563 13.2189 16.2336
2 9.5207 11.3289 16.5881
1 9.37199 11.3334 18.5156
2 7.57432 11.3326 19.0575
1 7.40448 13.238 19.3301
1 7.49169 11.3289 20.9209
2 7.55829 13.217 21.3205
1 9.41641 13.2368 21.7093
1 7.49846 13.2547 23.2621
2 9.39473 13.2775 23.6551
1 9.51489 11.3321 24.0377
1 9.42393 13.2506 25.6042
2 9.3655 11.387 26.002
1 7.50011 11.3093 26.4142
1 9.39042 11.205 27.9763
2 7.51391 15.1601 0.193457
1 7.48514 17.0731 0.596938
1 7.44391 15.1577 2.1663
2 7.60944 17.068 2.53059
1 9.42918 17.0676 2.93758
1 7.4491 17.0757 4.48674
2 9.40083 17.103 4.87552
1 9.50517 15.1601 5.26947
1 9.33535 17.0717 6.90019
2 9.42364 15.1036 7.24427
1 7.50854 15.2676 7.62075
1 9.41925 15.2587 9.25191
2 7.50352 15.0655 9.54543
1 7.5099 17.0656 9.89717
1 7.47213 15.1448 11.5655
2 7.50288 17.1395 11.9687
1 9.41798 16.9672 12.2489
1 7.50907 17.0613 13.8904
2 9.39304 17.1326 14.1787
1 9.51346 15.2197 14.6553
2 9.39843 15.0541 16.6436
1 7.51889 15.1773 17.0047
1 9.42104 15.1744 18.5571
2 7.55647 15.1854 18.9544
1 7.50262 17.0743 19.3544
1 7.40331 15.1569 20.9266
2 7.53607 17.1038 21.3098
1 9.41799 17.0764 21.7057
1 7.49952 17.0645 23.2743
2 9.41893 17.0866 23.6579
1 9.41697 15.1635 24.0472
1 9.41256 17.0533 25.6063
2 9.41803 15.1559 26.0032
1 7.48475 15.1883 26.3848
1 9.41512 15.1563 27.9549
2 7.50915 18.9877 0.19658
1 7.50412 20.9028 0.583309
1 7.47923 18.9587 2.15444
2 7.53473 20.8431 2.52513
1 9.42 20.9026 2.93536
1 7.50342 20.9982 4.50351
2 9.4473 20.8726 4.88459
1 9.41136 18.9835 5.2815
1 9.41463 20.9093 6.83533
2 9.44503 19.0411 7.21973
1 7.50559 18.8792 7.61982
1 9.41427 18.8934 9.19077
2 7.50479 19.0804 9.58527
1 7.5099 20.9158 9.97825
1 7.50077 18.9816 11.5221
2 7.47482 20.8693 11.9295
1 9.41415 20.9963 12.3086
1 7.50713 20.9094 13.882
2 9.42305 20.8634 14.287
1 9.41573 18.9361 14.7213
1 9.38993 20.9316 16.2355
2 9.421 19.0924 16.6365
1 7.52537 18.9618 17.0004
1 9.41569 18.9738 18.5593
2 7.50139 18.9901 18.9651
1 7.50459 20.9087 19.341
1 7.5077 18.9917 20.9174
2 7.50411 20.8984 21.3099
1 9.43842 20.9291 21.6736
1 7.51131 20.9023 23.2755
2 9.39701 20.8955 23.5318
1 9.4271 19.0534 24.1096
2 9.3911 18.8438 26.022
1 7.50643 18.9884 26.3802
1 9.41677 19.0161 27.938
2 7.52788 22.8194 0.186333
1 7.5036 24.7278 0.590293
1 7.40688 22.8103 2.21113
2 7.50347 24.7526 2.5269
1 9.42086 24.8189 2.92501
1 7.50366 24.6372 4.50217
2 9.4492 24.7311 4.90236
1 9.3321 22.8111 5.27489
1 9.41227 24.7221 6.83865
2 9.44044 22.8143 7.26456
1 7.50251 22.8152 7.57577
1 9.41991 22.8141 9.23679
2 7.48258 22.8158 9.54891
1 7.5159 24.7247 9.97777
1 7.5973 22.8126 11.5426
2 7.43376 24.7284 11.9226
1 9.42043 24.7255 12.2854
1 7.51499 24.7248 13.8721
2 9.41564 24.7273 14.316
1 9.40239 22.8107 14.6319
1 9.41968 24.7285 16.249
2 9.52042 22.8186 16.5911
1 9.36703 22.8109 18.5305
2 7.50259 22.8156 19.0578
1 7.50373 24.7217 19.3407
1 7.50824 22.8136 20.9304
2 7.50926 24.7256 21.3061
1 9.43512 24.697 21.6963
1 7.48524 24.7576 23.272
2 9.41327 24.7179 23.6579
1 9.42798 22.7472 24.1055
1 9.41676 24.748 25.607
2 9.39474 22.9575 26.0195
1 7.52328 22.7837 26.3833
1 9.42262 22.7886 27.9354
2 11.3548 -0.136847 0.179698
1 11.3154 1.82404 0.653358
1 11.2378 -0.173731 2.15445
2 11.3956 1.62859 2.54595
1 13.2138 1.80502 2.93333
1 11.3245 1.87253 4.47562
2 13.2825 1.72968 4.88724
1 13.2473 -0.152295 5.27905
1 13.2416 1.76334 6.83534
2 13.2417 -0.14945 7.23291
1 11.3283 -0.145006 7.62639
1 13.2544 -0.150479 9.18926
2 11.3838 -0.18106 9.56233
1 11.2471 1.75949 9.97725
1 11.2582 -0.129018 11.5516
2 11.2863 1.79487 11.9283
1 11.3892 1.75046 13.8317
2 13.2502 1.76363 14.3676
1 13.2584 -0.162184 14.6504
1 13.2194 1.74649 16.2476
2 13.3456 -0.130873 16.5771
1 13.2024 -0.220388 18.539
2 11.2972 -0.128905 19.0596
1 11.3287 1.76042 19.3462
1 11.3417 -0.144205 20.9245
2 11.3727 1.73733 21.3104
1 13.3111 1.76064 21.7402
1 11.3192 1.76923 23.2586
2 13.1431 1.76434 23.6695
1 13.271 -0.126164 24.0396
1 13.2641 1.76013 25.5959
2 13.243 -0.150828 26.0015
1 11.3332 -0.150309 26.3911
1 13.2448 -0.152946 27.9535
2 11.348 3.64803 0.084252
1 11.3286 5.52087 0.608135
2 11.364 5.75579 2.5513
1 13.2774 5.55389 2.97412
1 11.3222 5.47246 4.53046
2 13.2005 5.62184 4.88663
1 13.1795 3.696 5.2569
1 13.1595 5.58913 6.83788
2 13.2962 3.64544 7.24925
1 11.3323 3.76449 7.56288
1 13.2463 3.68255 9.18937
2 11.3579 3.68667 9.59025
1 11.3346 5.59414 9.92582
1 11.3567 3.65842 11.5397
2 11.3287 5.58743 11.9133
1 13.2448 5.58652 12.3172
1 11.3357 5.59444 13.8778
2 13.2466 5.59145 14.273
1 13.2468 3.66879 14.6486
1 13.2451 5.58996 16.2258
2 13.2469 3.68144 16.6109
1 11.3371 3.67352 17.0094
1 13.266 3.64744 18.5767
2 11.3591 3.68024 18.9484
1 11.3236 5.58914 19.3603
1 11.2393 3.67835 20.928
2 11.3576 5.62245 21.3217
1 13.2478 5.59883 21.7042
1 11.338 5.58063 23.3031
2 13.2394 5.55662 23.6409
1 13.2662 3.65559 24.0424
1 13.1562 5.59001 25.6196
2 13.2738 3.64656 26.0049
1 11.3329 3.77113 26.3642
1 13.2358 3.68631 27.9658
2 11.3541 7.46407 0.238548
1 11.2566 9.41873 0.529408
1 11.3282 7.53211 2.14738
2 11.3437 9.41977 2.5532
1 13.2468 9.43403 2.94757
1 11.3623 9.44632 4.50278
2 13.2462 9.31239 4.8715
1 13.269 7.47593 5.27544
1 13.2478 9.47815 6.78812
2 13.2715 7.54847 7.23312
1 11.3353 7.41593 7.61538
1 13.2433 7.49926 9.18409
2 11.3306 7.52884 9.59603
1 11.326 9.42312 9.97523
1 11.3343 7.50151 11.5361
2 11.3629 9.38908 11.9268
1 13.2506 9.41564 12.3173
1 11.3299 9.42317 13.8773
2 13.2423 9.41865 14.2734
1 13.2451 7.50476 14.6622
1 13.2495 9.41815 16.2308
2 13.244 7.49964 16.6148
1 11.3318 7.50375 17.0082
1 13.2586 7.53584 18.5776
2 11.3336 7.50247 18.961
1 11.336 9.41866 19.3543
1 11.3331 7.50418 20.9146
2 11.3293 9.39637 21.3003
1 13.25 9.42246 21.6924
1 11.3281 9.51287 23.3263
2 13.2702 9.42005 23.639
1 13.3202 7.50077 24.0439
1 13.159 9.42144 25.6132
2 13.2947 7.50701 26.0174
1 11.327 7.50271 26.3708
1 13.2382 7.50142 27.95
2 11.356 11.3813 0.201203
1 11.3303 13.247 0.586601
1 11.3294 11.3261 2.14853
2 11.3326 13.2269 2.52289
1 13.2397 13.2324 2.9493
1 11.35 13.313 4.51692
2 13.2805 13.3201 4.87169
1 13.2385 13.1926 6.78827
2 13.2462 11.3332 7.32702
1 11.3409 11.3329 7.60824
1 13.249 11.3332 9.19818
2 11.3536 11.3312 9.55779
1 11.3208 13.2441 9.97607
1 11.2375 11.3268 11.5406
2 11.4045 13.2215 11.9076
1 13.2529 13.2525 12.3204
1 11.3218 13.3385 13.8818
2 13.2742 13.2157 14.2702
1 13.2485 11.3292 14.6633
1 13.2392 13.245 16.2208
2 13.2454 11.3364 16.618
1 11.3428 11.3329 17.0131
1 13.2653 11.3046 18.5847
2 11.3219 11.3306 18.9715
1 11.3448 13.2416 19.3655
1 11.3625 11.3533 20.9738
2 11.2305 13.2682 21.2746
1 11.3933 13.1572 23.2192
2 13.2777 13.2718 23.7482
1 13.1456 11.342 24.0245
1 13.2413 13.2434 25.617
2 13.2976 11.3582 26.0128
1 11.3301 11.2338 26.3328
1 13.2468 11.3277 27.954
2 11.3019 15.1307 0.205029
1 11.4241 17.0739 0.575947
1 11.3366 15.1608 2.19265
2 11.311 17.0952 2.54075
1 13.2414 17.0704 2.89018
1 11.332 16.9804 4.50579
2 13.2787 17.1031 4.87503
1 13.1536 15.1714 5.27204
1 13.2405 17.0696 6.83745
2 13.2853 15.1521 7.24595
1 11.3358 15.1627 7.58243
1 13.2337 15.1546 9.1827
2 11.3813 15.1329 9.56134
1 11.2458 17.0722 9.96624
1 11.2277 15.1588 11.5917
2 11.3504 17.0956 11.9269
1 13.2284 17.1624 12.3221
1 11.3239 16.9808 13.9028
2 13.2909 17.0778 14.2986
1 13.1596 15.155 14.6538
1 13.2402 17.0703 16.2701
2 13.2703 15.1324 16.6211
1 11.3111 15.1973 16.9552
1 13.2471 15.2467 18.5907
2 11.2996 15.1267 18.9524
1 11.42 17.074 19.3398
1 11.3686 15.1443 20.9196
2 11.3084 17.0689 21.3241
1 13.2477 17.0761 21.6598
1 11.3268 17.0721 23.2655
2 13.2112 17.0441 23.656
1 13.2443 15.1521 24.0338
1 13.2898 17.094 25.6615
2 13.243 15.1395 25.9821
1 11.3342 15.1659 26.3963
1 13.2422 15.2508 27.9626
2 11.3077 18.9931 0.210001
1 11.3254 20.903 0.5386
1 11.3389 18.9876 2.14571
2 11.3347 20.8999 2.53051
1 13.2667 20.9307 2.92491
1 11.3357 20.8976 4.49335
2 13.2463 20.8983 4.88739
1 13.253 18.9897 5.28156
1 13.2447 20.8994 6.8423
2 13.2441 18.9838 7.24512
1 11.3317 18.9836 7.62514
1 13.2444 18.992 9.23202
2 11.335 19.0164 9.56102
1 11.3346 20.9039 9.97599
1 11.4253 18.9884 11.5358
2 11.3306 20.9003 11.9262
1 13.2495 20.8001 12.3056
1 11.3316 20.9017 13.8755
2 13.2448 20.927 14.2855
1 13.2486 18.9907 14.6146
1 13.2445 20.902 16.2233
2 13.2458 19.0124 16.591
1 11.3135 18.9528 17.0046
1 13.241 18.892 18.5781
2 11.3045 19.0334 18.965
1 11.3246 20.9571 19.4112
1 11.3375 18.9741 20.9131
2 11.3362 20.7957 21.3403
1 13.2299 20.9294 21.7038
1 11.3134 20.9152 23.3094
2 13.1918 20.8973 23.6391
1 13.3515 18.988 24.0538
1 13.2134 20.8822 25.6195
2 13.1374 18.9761 25.9812
1 11.2887 19.1062 26.3786
1 13.3055 18.8962 27.9115
2 11.33 22.8401 0.21091
1 11.3266 24.7337 0.590044
1 11.3403 22.8113 2.15047
2 11.3645 24.6963 2.54329
1 13.2704 24.6952 2.92423
1 11.3342 24.7372 4.49197
2 13.2438 24.7328 4.8885
1 13.2499 22.8146 5.27289
1 13.2452 24.7287 6.84234
2 13.2475 22.8139 7.22927
1 11.3362 22.8141 7.62437
1 13.2495 22.8145 9.18524
2 11.3564 22.8145 9.56352
1 11.3204 24.7262 9.97937
1 11.236 22.8174 11.5429
2 11.4177 24.7283 11.9245
1 13.311 24.7333 12.3729
1 11.3132 24.7313 13.872
2 13.1419 24.725 14.2985
1 13.2756 22.8373 14.656
1 13.23 24.7497 16.2694
2 13.2462 22.7909 16.6052
1 11.3452 22.8245 17.0017
1 13.2322 22.9113 18.5973
2 11.2928 22.781 18.8678
1 11.4284 24.6768 19.3822
2 11.3101 24.8289 21.3424
1 13.2262 24.6899 21.647
1 11.3267 24.7158 23.2532
2 13.2146 24.7657 23.6464
1 13.33 22.8145 24.0353
1 13.2533 24.7293 25.6061
2 13.2455 22.8435 26.0223
1 11.3008 22.6883 26.3742
1 13.2488 22.8112 27.9689
2 15.1248 -0.192623 0.19522
1 15.271 1.7635 0.59314
1 15.2063 -0.113442 2.154
2 15.0214 1.76475 2.53305
1 15.2139 1.76654 4.44154
2 17.0379 1.80015 4.99188
1 17.178 -0.140395 5.26274
1 17.1132 1.73879 6.85978
2 16.9421 -0.152132 7.22297
1 15.1423 -0.1497 7.62856
1 17.1305 -0.150263 9.13506
2 15.1751 -0.150228 9.58137
1 15.1446 1.76206 9.98327
1 15.1319 -0.137791 11.5551
2 15.2623 1.76372 11.906
1 17.0852 1.76368 12.3185
1 15.1027 1.75967 13.827
2 17.0654 1.76099 14.272
1 17.0444 -0.16986 14.6555
1 17.0715 1.75641 16.2319
2 17.0907 -0.159177 16.6186
1 15.169 -0.144136 17.0244
1 17.0648 -0.0863743 18.5864
2 15.1884 -0.222195 18.9467
1 15.151 -0.0868738 20.873
2 15.1594 1.76334 21.3111
1 17.02 1.76323 21.727
2 17.1776 1.76459 23.6768
1 17.0518 -0.127205 24.0379
1 17.0569 1.76305 25.6432
2 17.0731 -0.176045 25.9913
1 15.1623 -0.14141 26.3947
1 17.0798 -0.0588102 27.9892
2 15.1274 3.70732 0.195206
1 15.1561 5.59455 0.575574
1 15.1931 3.66115 2.16862
2 15.1576 5.58808 2.44605
1 17.016 5.58593 2.98585
2 17.1748 5.59147 4.90584
1 17.0424 3.69305 5.25765
1 17.0587 5.58987 6.82809
2 17.0778 3.67461 7.23011
1 15.1674 3.67695 7.6224
1 17.0731 3.67734 9.18763
2 15.1646 3.67885 9.57868
1 15.1601 5.59038 9.97097
1 15.1302 3.65678 11.542
2 15.1594 5.58906 11.9232
1 17.073 5.59041 12.3158
1 15.1577 5.59133 13.8784
2 17.0517 5.59352 14.2632
1 17.0787 3.67913 14.6644
1 17.1456 5.59103 16.287
2 17.0493 3.63358 16.5982
1 15.1619 3.66533 17.0282
1 17.1034 3.74907 18.607
2 15.1319 3.75142 18.9491
1 15.2344 5.59212 19.3563
1 15.1636 3.61154 20.8744
2 15.111 5.53025 21.3026
1 17.0805 5.68793 21.6236
1 15.1656 5.68697 23.2649
2 17.1015 5.53404 23.6608
1 17.0478 3.6511 24.039
1 17.0685 5.59639 25.6041
2 17.0773 3.70232 25.9885
1 15.1646 3.665 26.3942
1 17.076 3.58708 27.9721
2 15.1583 7.50705 0.186572
1 15.1604 9.41806 0.58665
1 15.1585 7.49558 2.16235
2 15.1611 9.41441 2.53877
1 17.0729 9.41728 2.93205
1 15.1388 9.44335 4.50366
2 17.072 9.41499 4.88689
1 17.0441 7.48439 5.26997
1 17.073 9.41752 6.84158
2 17.0769 7.5061 7.23357
1 15.1615 7.50429 7.62055
1 17.0736 7.50505 9.18804
2 15.1593 7.50397 9.57823
1 15.1595 9.41855 9.97103
1 15.1597 7.5054 11.534
2 15.1708 9.41878 11.9262
1 17.1308 9.41778 12.3692
1 15.1474 9.41807 13.8781
2 16.9673 9.41682 14.2883
1 17.1065 7.52216 14.6573
1 17.0843 9.42267 16.2154
2 17.0473 7.55015 16.6063
1 15.162 7.51721 17.0268
1 17.0877 7.39972 18.6534
2 15.1092 7.428 18.9386
1 15.2571 7.56128 20.9244
2 15.1354 9.47989 21.3898
1 17.0651 9.32614 21.6774
1 15.1687 9.31612 23.278
2 17.097 9.47285 23.666
1 16.9792 7.50408 23.9823
1 17.0972 9.43646 25.6162
2 17.0965 7.50687 26.0115
1 15.1696 7.50496 26.3503
1 17.0736 7.50504 27.9586
2 15.1708 11.3301 0.19625
1 15.1679 13.2424 0.58917
1 15.1536 11.3289 2.15217
2 15.1293 13.2207 2.53952
1 17.0725 13.3406 2.92209
1 15.1462 13.2204 4.4999
2 17.0712 13.2206 4.90543
1 17.0695 11.3293 5.28207
1 17.074 13.2508 6.85725
2 17.0732 11.3296 7.23445
1 15.1516 11.3316 7.61007
1 17.0729 11.3356 9.18689
2 15.1606 11.3341 9.57766
1 15.188 13.2653 9.96309
1 15.1586 11.3321 11.5338
2 15.1554 13.2463 11.9254
1 17.0737 13.2561 12.3134
1 15.1639 13.2425 13.8799
2 17.0749 13.2529 14.2715
1 17.1094 11.3117 14.6547
1 17.0719 13.2358 16.2234
2 17.0699 11.3359 16.6195
1 15.1593 11.3164 17.0215
1 17.0532 11.3036 18.5798
2 15.163 11.4336 18.9428
1 15.1471 13.2532 19.3705
1 15.1292 11.3051 20.8713
2 15.2623 13.236 21.292
1 17.0833 13.247 21.7022
1 15.1068 13.2476 23.2106
2 17.0584 13.2464 23.6528
1 17.0922 11.34 24.0632
1 17.0998 13.2262 25.617
2 16.9705 11.3326 25.9851
1 15.1546 11.3349 26.3986
1 17.1303 11.3317 27.9036
2 15.1661 15.1268 0.17747
1 15.0716 17.0822 0.560872
1 15.2463 15.1619 2.15589
2 15.1501 17.0955 2.55529
1 17.0759 16.9952 2.93871
1 15.1867 17.0991 4.50205
2 17.0744 16.994 4.90355
1 17.0729 15.1466 5.21805
1 17.0728 17.1207 6.85199
2 17.0728 15.1517 7.09234
1 15.2302 15.1681 7.6914
2 15.0171 15.1383 9.60259
1 15.3043 17.0511 9.97925
1 15.2229 15.1756 11.5217
2 15.0239 17.0045 11.9211
1 15.2327 17.0927 13.8271
2 17.0733 17.0535 14.3073
1 17.0738 15.2167 14.7011
2 17.0728 15.0601 16.6305
1 15.1812 15.1946 17.0058
1 17.0774 15.171 18.5577
2 15.1945 15.128 18.9632
1 15.0679 17.0676 19.3379
1 15.1239 15.1364 20.9215
2 15.1856 17.0462 21.3085
1 17.0743 17.0791 21.7069
1 15.1604 17.1655 23.2815
2 17.1068 17.0421 23.6567
1 17.0755 15.1549 24.0497
1 17.0352 17.0971 25.6157
2 17.0713 15.1604 26.0115