1700
Atoms. Timestep: 1225
2 -0.391789 26.8897 -0.0238854
1 26.8947 1.57003 0.379561
1 26.8552 26.9093 1.95814
2 -0.333518 1.5394 2.35925
1 1.56711 1.56026 2.76523
1 26.8642 1.54228 4.31936
2 1.56162 1.54091 4.73725
1 1.57332 26.8732 5.14235
1 1.54595 1.52502 6.72394
2 1.55317 26.8624 7.12773
1 26.8626 26.894 7.53384
1 1.55814 -0.383949 9.10685
2 26.8636 -0.353419 9.5049
1 -0.416706 1.57811 9.92172
1 26.8599 26.8946 11.4841
2 26.8063 1.56518 11.9099
1 1.44247 1.53287 12.3463
1 -0.410114 1.55946 13.9253
2 1.53373 1.61908 14.2581
1 1.60912 26.6831 14.8516
1 1.60421 1.6673 16.1735
2 1.51944 -0.0973685 16.6803
1 -0.320996 26.8252 16.9463
1 1.55248 26.937 18.5869
2 -0.318307 -0.327253 18.8465
1 26.8409 1.40598 19.6378
2 -0.307472 1.87032 21.5433
1 1.51318 1.44852 21.4988
1 26.7517 1.70318 23.448
1 1.58584 26.7105 24.3661
1 1.535 1.59287 26.1502
2 1.55811 -0.378352 26.273
1 -0.376744 -0.405163 26.5962
1 1.56287 -0.372747 28.2139
2 -0.318424 3.51824 28.5919
1 26.8515 5.45263 0.409789
1 26.7121 3.49997 1.97442
2 -0.277871 5.49692 2.38587
1 1.58679 5.35345 2.75758
1 -0.336562 5.48701 4.38057
2 1.58312 5.41419 4.73524
1 1.52692 3.44994 5.11406
1 1.56114 5.28567 6.66518
2 1.53582 3.41075 7.11252
1 -0.438995 3.51069 7.49442
1 1.37835 3.48674 9.04544
2 26.7615 3.51472 9.51719
1 -0.423987 5.44852 9.93465
1 -0.422629 3.50765 11.5025
2 26.8699 5.44345 11.9245
1 1.55333 5.42082 12.3044
1 26.8759 5.45262 13.92
2 1.57041 5.48 14.2769
1 1.6219 3.55894 14.6442
1 1.31543 5.46672 16.3516
2 1.59511 3.52369 16.6346
1 26.8746 3.61973 17.0762
1 1.53764 3.41744 18.6232
2 26.8685 3.32388 19.0696
1 -0.367045 5.2944 19.1485
1 26.8812 3.62224 20.9843
2 -0.365858 5.51418 21.2444
1 1.56896 5.49236 21.759
1 26.863 5.43094 23.3001
2 1.53657 5.53153 23.7461
1 1.56982 3.68606 24.2699
1 1.52639 5.49197 25.8085
2 1.53995 3.55332 26.2129
1 26.8246 3.56532 26.6592
1 1.57556 3.53034 28.1868
2 26.757 7.37907 -0.00574395
1 26.8127 9.30095 0.337743
1 -0.393325 7.38756 1.96674
2 -0.431708 9.27366 2.37245
1 1.48812 9.32618 2.72936
1 -0.426286 9.3419 4.37029
2 1.44994 9.35943 4.71059
1 1.56642 7.37576 4.76617
1 1.51942 9.34478 6.58179
1 26.6888 7.38918 7.61859
1 1.53083 7.41625 9.47171
2 -0.437684 7.38013 9.55722
1 -0.429526 9.31004 9.92585
1 -0.435518 7.38152 11.5364
2 26.7602 9.31045 11.9077
1 1.38111 9.34658 12.3791
1 -0.446936 9.32677 13.9122
2 1.54054 9.35908 14.2992
1 1.61118 7.40254 14.6666
1 1.54937 9.38115 16.2608
2 1.59378 7.48411 16.6102
1 26.8638 7.30773 16.772
1 1.73748 7.37419 18.5223
1 26.8746 9.44944 19.5005
1 26.877 7.41256 21.2908
2 26.8672 9.34516 21.4508
1 1.55961 9.33183 21.8242
1 26.8349 9.32364 23.424
2 1.54675 9.25946 23.7857
1 1.51152 7.3915 24.1801
1 1.51539 9.30476 25.8023
2 1.49928 7.39305 26.1627
1 26.7598 7.33073 26.5833
1 1.38407 7.4325 28.0931
2 26.8816 11.2623 -0.0838422
1 26.8742 13.2264 0.0236088
1 -0.398316 11.1328 1.85541
1 1.81593 13.1885 2.80994
1 -0.384663 13.2702 4.67303
2 1.58132 13.2611 4.74705
1 1.53794 11.328 4.78734
1 1.6136 13.4276 6.68329
1 26.7032 11.263 7.60679
1 1.57297 11.2582 9.44291
2 -0.412473 11.2005 9.5401
1 -0.374429 13.0737 9.88868
1 -0.434689 11.2305 11.5422
2 26.8692 13.1406 11.8909
1 1.55895 13.2552 12.2894
1 -0.387067 13.2442 13.8574
2 1.56419 13.2413 14.2609
1 1.55019 11.306 14.6635
1 1.57372 13.2446 16.2417
2 1.56767 11.3123 16.6446
1 26.8682 11.307 17.0434
1 1.56499 11.2958 18.616
2 26.8696 11.2709 18.9982
1 -0.437248 13.0958 19.4739
1 -0.401478 11.2613 21.0555
2 -0.410171 13.1549 21.431
1 1.55971 13.1934 21.4589
1 26.7093 13.1814 23.3671
1 1.53377 11.1219 24.2295
1 1.59027 13.2493 26.0984
2 1.53466 11.2817 26.137
1 -0.389742 11.2851 26.5184
1 1.55937 11.3108 28.0822
2 -0.27802 15.191 -0.0618436
1 26.8983 17.1362 0.327043
1 26.9011 15.2977 1.8772
2 -0.375909 17.1382 2.36408
1 1.5589 17.1497 2.7355
1 -0.378547 17.1328 4.33144
2 1.56919 17.1367 4.67822
1 1.58623 15.2173 5.07445
1 1.57188 17.1762 6.62957
2 1.60064 15.3127 7.09462
1 -0.321024 15.1747 7.49083
1 1.52295 15.2829 9.10102
2 26.9319 14.8617 9.38954
1 26.8915 15.0202 11.2909
1 1.6541 17.1307 12.3037
1 26.8365 17.1271 14.1995
2 1.49689 17.1043 14.2619
1 1.57978 15.1758 14.6321
1 1.59524 17.103 16.2467
2 1.5954 15.1768 16.6109
1 26.8716 15.2012 16.7313
1 1.71853 15.231 18.5503
1 -0.366811 17.7904 19.9653
1 -0.376947 15.0629 21.3574
2 26.9088 16.8849 21.576
1 1.55799 17.1649 21.8513
1 -0.33819 17.1872 23.4508
2 1.60245 17.2515 23.8238
1 1.58783 15.3722 24.2663
1 1.61078 17.1865 25.8177
2 1.59951 15.216 26.1975
1 26.9391 15.2282 26.5267
1 1.62062 15.1802 28.1831
2 -0.38357 19.0797 -0.0718664
1 -0.42351 21.0403 0.0241305
1 -0.392505 18.9715 1.86439
1 1.66853 21.0499 2.80995
1 -0.39526 21.0033 4.69818
2 1.55709 21.0556 4.73348
1 1.55631 19.0939 5.03545
1 1.53095 21.0244 6.69274
2 1.55444 19.0924 6.91731
1 -0.00267357 19.0352 7.93139
2 26.4926 19.499 9.50643
1 -0.395963 21.2211 9.9302
1 -0.317864 19.2446 11.2683
2 26.9012 21.1532 11.9123
1 1.5531 21.0724 12.3239
1 -0.355083 21.0777 13.88
2 1.55885 20.9458 14.2651
1 1.57881 19.0278 14.6043
1 1.55085 20.9289 16.1918
2 1.57669 19.0176 16.578
1 26.8659 19.022 16.8925
1 1.54285 19.0957 18.5491
2 -0.39058 19.1719 18.7494
1 -0.371418 20.9835 19.0852
1 1.70439 20.944 21.9016
1 26.8727 21.004 23.7157
2 1.58608 21.0348 23.8489
1 1.58993 19.1283 24.2214
1 1.58155 21.0204 25.8427
2 1.57051 19.0965 26.1954
1 -0.389876 19.0741 26.5503
1 1.56348 19.0901 28.1539
2 26.7704 23.009 -0.0466085
1 26.8726 24.9751 0.336527
1 26.8595 23.1521 1.88283
2 26.8894 25.0234 2.33459
1 1.60172 24.9589 2.74023
1 -0.226515 24.9496 4.26527
2 1.64617 24.9392 4.74858
1 1.55007 22.9956 5.13038
1 1.53837 24.9323 6.71796
2 1.43985 22.9769 7.09541
1 26.8196 22.9942 7.51591
1 1.47775 23.02 9.11202
2 -0.422526 23.0792 9.51111
1 26.8424 24.9731 9.89158
1 26.8828 23.0651 11.5344
2 -0.310956 24.9788 11.8523
1 1.60429 24.9657 12.184
1 -0.316658 24.9492 13.8377
2 1.5981 24.9454 14.0631
1 1.57924 23.2826 14.9607
2 1.56791 22.6935 16.7469
1 -0.327049 23.0536 17.0596
1 1.54584 23.0059 18.6315
2 26.9018 22.8632 18.9781
1 -0.332663 25.3672 19.827
1 -0.27858 23.0123 20.8456
2 26.5393 24.6526 21.4383
1 -0.0181601 24.9657 23.0718
2 1.5675 24.8296 24.0363
1 1.51945 22.9397 24.2466
1 1.56512 24.8737 25.9191
2 1.54393 22.9371 26.2188
1 -0.432039 22.9902 26.5428
1 1.39345 22.9631 28.1302
2 3.51493 -0.320213 28.5633
1 3.51574 1.54789 0.38013
1 3.51507 26.9095 1.99196
2 3.51684 1.5471 2.37829
1 5.46595 1.57068 2.76882
1 3.51421 1.56183 4.34609
2 5.46634 1.56701 4.73391
1 5.45793 26.9179 5.11526
1 5.46955 1.55645 6.72131
2 5.45787 -0.307807 7.12887
1 3.5039 26.8612 7.52238
1 5.45833 -0.372408 9.09523
2 3.51506 26.7818 9.47848
1 3.49473 1.40008 9.95173
1 3.55654 -0.378774 11.4895
2 3.2105 1.51779 11.8164
1 3.67016 1.5174 13.682
2 5.42169 1.5675 14.4657
1 5.45669 -0.364534 14.3751
1 5.39093 1.75852 16.3153
1 3.31712 26.7326 17.0802
1 5.42458 26.8513 19.0239
2 3.48276 -0.39639 19.0278
1 3.4993 1.54811 19.3697
1 3.42079 26.8094 21.0073
2 3.47936 1.52217 21.3252
1 5.45124 1.5843 21.4429
1 3.49974 1.56802 23.2067
1 5.32864 26.6814 24.2788
1 5.45152 1.56322 26.1028
2 5.44071 -0.407789 26.2092
1 3.49902 -0.373995 26.6004
1 5.46029 -0.397486 28.1716
2 3.51345 3.411 28.5398
1 3.5108 5.26166 0.442562
1 3.51924 3.43533 1.98359
2 3.51181 5.32773 2.40648
1 5.43563 5.36363 2.77585
1 3.51968 5.36512 4.40419
2 5.45025 5.33868 4.75028
1 5.49523 3.49123 5.17377
1 5.47027 5.3936 7.06492
2 5.49716 3.43246 7.12146
1 3.50797 3.46274 7.21299
1 5.65352 3.60913 9.03711
1 3.70399 5.6037 9.97809
1 3.57711 3.4076 11.7907
2 3.47915 5.36045 11.9105
1 5.46082 5.43389 12.1799
1 3.52864 5.4785 13.8695
2 5.46324 5.47839 14.2269
1 5.43348 3.54604 14.6852
1 5.48044 5.51972 16.2252
2 5.36588 3.65751 16.692
1 3.4786 3.61317 17.0711
1 5.41448 3.56925 18.6819
2 3.48259 3.5053 19.0484
1 3.50544 5.45356 19.4412
1 3.45562 3.49259 21.0116
2 3.51194 5.45806 21.4014
1 5.45434 5.46623 21.8098
1 3.4971 5.49186 23.3662
2 5.45289 5.55437 23.7808
1 5.44227 3.6875 24.2707
1 5.44253 5.5099 25.7952
2 5.45337 3.53929 26.2009
1 3.50314 3.51534 26.5703
1 5.44785 3.49687 28.1636
1 3.42941 10.0606 0.909477
1 3.5077 7.23943 2.27306
2 3.36857 9.05607 2.47439
1 5.20865 9.41551 2.55152
1 3.31709 9.38031 4.33065
1 5.48599 7.1607 5.27146
1 5.56397 9.36773 7.0635
2 5.55516 7.42487 7.15969
1 3.68869 7.40282 7.6358
1 5.52607 7.23807 9.17595
2 3.4566 7.50449 9.56399
1 3.54522 9.40122 9.57732
1 3.48481 7.31433 11.5264
1 5.61579 9.34178 12.3405
1 3.51462 9.3646 14.2116
2 5.49361 9.34137 14.2778
1 5.48727 7.42216 14.6346
1 5.52443 9.33802 16.2638
2 5.50976 7.42418 16.6308
1 3.56452 7.41236 17.0045
1 5.49686 7.39542 18.6125
2 3.60208 7.39639 19.0229
1 3.52929 9.34363 19.4281
1 3.53552 7.40922 20.9988
2 3.51154 9.34847 21.4089
1 5.45734 9.35631 21.8157
1 3.50658 9.33871 23.3827
2 5.45741 9.36509 23.7851
1 5.47233 7.43929 24.1688
1 5.46453 9.36171 25.7634
2 5.44842 7.42651 26.1353
1 3.47876 7.43403 26.2317
1 5.49117 7.44845 28.0727
2 3.49446 11.4859 28.3104
1 3.5387 13.1554 0.592374
2 3.62869 13.5689 2.47128
1 5.4548 13.2232 2.76747
1 3.58092 13.2994 4.38793
2 5.51814 13.3327 4.75617
1 5.55312 11.4705 5.22905
1 5.52358 13.3039 6.75787
2 5.59096 11.3392 7.16337
1 3.70533 11.3681 7.57163
1 5.51115 11.3578 9.15865
2 3.53738 11.3566 9.50356
1 3.48012 13.3246 9.88121
1 3.56126 11.4947 11.4365
2 3.51746 13.3604 11.8978
1 5.4727 13.2512 12.3089
1 3.51655 13.2378 13.8642
2 5.47331 13.1306 14.2693
1 5.47234 11.2516 14.6758
1 5.50161 13.1709 16.2795
2 5.49289 11.2595 16.6634
1 3.52301 11.2845 17.0547
1 5.46908 11.2738 18.6264
2 3.52153 11.2931 19.0233
1 3.53885 13.2421 19.4048
1 3.50857 11.2842 20.9939
2 3.49768 13.2388 21.3687
1 5.41227 13.2503 21.7602
1 3.60231 13.2455 23.3161
2 5.43119 13.2534 23.8136
1 5.46739 11.3034 24.1714
1 5.45238 13.2486 25.7711
2 5.48321 11.3002 26.1201
1 3.502 11.3063 26.449
1 5.43281 11.3423 28.0679
2 3.53116 15.2184 -0.00485323
1 3.52652 17.1516 0.3406
1 3.54154 15.3285 1.95035
2 3.52086 17.1985 2.35931
1 5.47908 17.1444 2.77408
1 3.51172 17.1372 4.32719
2 5.46114 17.1239 4.735
1 5.47232 15.2182 5.14078
1 5.43718 17.115 6.73329
2 5.46861 15.2028 7.14117
1 3.50914 15.2381 7.54183
1 5.46014 15.2179 9.10846
2 3.48714 15.258 9.50386
1 3.4323 17.2089 9.91201
1 3.52179 15.2403 11.4808
2 3.56705 17.1539 11.8885
1 5.49123 17.1431 11.9059
1 3.40488 17.1155 13.8261
1 5.48678 14.9965 14.7475
1 5.44315 17.126 16.5866
2 5.484 15.1546 16.6758
1 3.56496 15.1562 17.0298
1 5.48979 15.17 18.6513
2 3.59803 15.1932 19.0352
1 3.50956 17.1421 19.4412
1 3.49212 15.1985 21.0045
2 3.50474 17.1483 21.4138
1 5.44661 17.1227 21.8176
1 3.52125 17.1671 23.3904
2 5.45395 17.1399 23.7972
1 5.44004 15.1962 24.2057
1 5.44774 17.1348 25.7757
2 5.45913 15.1937 26.1807
1 3.52745 15.169 26.5963
1 5.4434 15.168 28.1599
2 3.51464 19.0218 28.5353
1 3.5214 20.8872 0.429743
1 3.50664 19.0685 1.96017
2 3.51045 21.0207 2.36178
1 5.34711 20.9648 2.82198
1 3.49624 21.0132 4.39345
2 5.42531 21.0094 4.76124
1 5.40964 19.0267 5.11708
1 5.3051 20.8318 6.68841
2 5.49534 18.9829 7.08317
1 3.19556 19.074 7.81165
1 5.42396 19.0759 8.97543
2 3.70349 19.1001 9.63345
1 3.40495 20.9866 9.9434
1 3.51714 19.0964 11.5334
2 3.47923 21.0501 11.9192
1 5.42555 21.0389 12.2766
1 3.47104 21.084 13.8876
2 5.42057 21.1138 14.2537
1 5.41164 19.243 14.7347
1 5.39521 21.0493 16.2755
2 5.36118 19.0914 16.6708
1 3.48515 19.0678 17.0459
1 5.39914 19.1047 18.6786
2 3.4758 19.09 19.0302
1 3.47975 21.0438 19.433
1 3.51043 19.0894 21.0009
2 3.57818 21.0388 21.4072
1 5.47276 21.0318 21.8178
1 3.54825 21.0411 23.4128
2 5.47035 21.0158 23.8052
1 5.46084 19.0796 24.2035
1 5.4833 21.0165 25.7872
2 5.46552 19.0745 26.178
1 3.52636 19.0888 26.5788
1 5.46762 19.0722 28.1532
1 3.51556 25.0787 0.452253
1 3.52184 22.9834 2.2909
2 3.51424 24.9517 2.38659
1 5.43601 24.9808 2.73957
1 3.53164 24.9602 4.36922
2 5.44949 24.9526 4.72143
1 5.44753 22.9795 4.80957
1 5.45712 25.091 6.65517
1 3.29279 22.972 7.58867
1 5.23653 22.9265 9.39687
2 3.3579 22.9545 9.54666
1 3.50696 24.9023 9.89587
1 3.46941 22.9756 11.5108
2 3.55155 24.9315 11.8503
1 5.46949 24.9211 12.2595
1 3.51855 24.9211 13.8156
2 5.45093 24.9288 14.2374
1 5.43851 22.982 14.6506
1 5.45733 24.7776 16.1813
2 5.42805 22.9176 16.6713
1 3.45939 22.9961 17.0721
1 5.43536 22.9675 18.6407
2 3.48955 22.9793 19.0321
1 3.48395 24.9161 19.4082
1 3.46218 23.0081 20.9979
2 3.69267 24.9145 21.2957
1 5.41145 24.9021 21.9361
1 3.23165 24.8769 23.1491
2 5.35395 24.8208 23.8389
1 5.44192 22.9442 24.1874
1 5.39591 24.8729 25.8186
2 5.4765 22.9521 26.1651
1 3.50855 22.9527 26.2416
1 5.63328 22.9827 28.0886
2 7.40929 26.8928 28.5413
1 7.39857 1.55981 0.358706
1 7.39606 -0.345653 1.94516
2 7.40982 1.56116 2.3539
1 9.35728 1.56067 2.76695
1 7.41099 1.54801 4.33078
2 9.35431 1.52595 4.74062
1 9.3462 26.8688 5.14538
1 9.38714 1.53331 6.72909
2 9.35816 -0.381792 7.1358
1 7.41054 26.8998 7.53121
1 9.35864 26.8976 9.11607
2 7.40046 -0.301326 9.48992
1 7.45239 1.57691 9.90008
1 7.34757 -0.28199 11.5059
2 7.69677 1.59106 11.801
1 9.48099 1.55525 12.2522
1 7.12942 1.5972 13.6087
2 9.43401 1.55516 14.1767
1 9.29102 -0.357675 14.2903
1 9.4165 1.6455 16.0437
1 7.38127 -0.281926 17.1937
1 9.33603 26.8815 19.0036
2 7.38156 26.891 19.076
1 7.43439 1.62988 19.3864
1 7.42176 -0.198005 21.0028
2 7.42201 1.67885 21.3838
1 9.41033 1.60301 21.8014
1 7.57016 1.62731 23.3153
2 9.45035 1.67543 23.8031
1 9.37515 -0.19837 24.2823
1 9.3604 1.62174 25.8125
2 9.36371 26.9086 26.21
1 7.40206 26.8763 26.5656
1 9.36114 26.9188 28.1693
2 7.39119 3.47799 28.5426
1 7.32894 5.39133 0.33855
1 7.41719 3.4722 1.94996
2 7.31932 5.34974 2.34253
1 9.29314 5.64579 2.67104
1 7.37935 5.38446 4.33095
2 9.25605 5.30824 4.73667
1 9.35137 3.4391 5.12488
1 9.32671 5.36562 6.73012
2 9.40337 3.45493 7.11899
1 7.48871 3.44577 7.49075
1 9.40408 3.50369 9.1147
2 7.52844 3.45958 9.48381
1 7.22635 5.43573 9.88595
1 7.41147 3.48209 11.4645
2 7.40993 5.45326 11.8854
1 9.31925 5.50403 12.2594
1 7.40049 5.50706 13.8528
2 9.32019 5.38242 14.2114
1 9.29348 3.47026 14.2181
1 9.44524 5.44121 16.1091
1 7.24161 3.57199 17.1276
1 9.44316 3.52671 18.8631
2 7.43054 3.5464 19.0408
1 7.43766 5.4755 19.421
1 7.42187 3.56361 21.0117
2 7.41081 5.4803 21.4137
1 9.35803 5.47583 21.8409
1 7.39968 5.47307 23.3884
2 9.34916 5.46959 23.8241
1 9.3718 3.56029 24.2232
1 9.35011 5.46487 25.8359
2 9.34405 3.53407 26.202
1 7.39455 3.51931 26.5724
1 9.33211 3.50234 28.1688
2 7.31543 7.37144 -0.052929
1 7.35629 9.36125 0.0320446
1 7.51547 7.23647 1.87136
1 9.56443 9.23386 2.4022
1 7.55853 9.3123 4.54403
1 9.56945 7.19456 5.12905
1 9.35786 9.20693 6.98808
2 9.35291 7.285 7.09828
1 7.44442 7.35456 7.53302
1 9.39297 7.33627 9.09341
2 7.49331 7.44053 9.50582
1 7.43691 9.35538 9.87881
1 7.44443 7.40526 11.462
2 7.48454 9.34544 11.8354
1 9.39535 9.35 12.1807
1 7.47111 9.35103 13.8167
2 9.38427 9.36182 14.0627
1 9.35678 7.72395 14.9684
2 9.36809 7.16588 16.7676
1 7.477 7.43035 17.0695
1 9.35763 7.37859 18.663
2 7.41611 7.41481 19.0516
1 7.41826 9.34409 19.447
1 7.39377 7.40605 21.0196
2 7.40526 9.34761 21.4224
1 9.35233 9.30926 21.8341
1 7.40598 9.34077 23.3915
2 9.34792 9.23899 23.8156
1 9.32853 7.36826 24.2217
1 9.35122 9.2857 25.8491
2 9.3463 7.38073 26.2978
1 7.40844 7.36837 26.5694
1 9.20161 7.39628 28.3779
2 7.39235 11.3176 -0.0821447
1 7.38645 13.2778 0.311094
1 7.38247 11.4515 1.85299
2 7.38109 13.3128 2.29472
1 9.35927 13.2803 2.63206
1 7.43859 13.3206 4.24969
2 9.36327 13.4249 4.49979
1 9.34828 12.0007 5.69778
2 9.38084 11.0215 7.27839
1 7.4851 11.3166 7.57314
1 9.37502 11.2964 9.1625
2 7.42865 11.3014 9.54307
1 7.42128 13.2152 9.93138
1 7.42042 11.2827 11.5058
2 7.41668 13.2137 11.91
1 9.36161 13.1926 12.318
1 7.43845 13.1632 13.8842
2 9.35819 13.2856 14.2662
1 9.36789 11.021 14.9563
1 9.35477 13.3148 16.2031
2 9.3565 11.5612 16.7719
1 7.46515 11.2373 17.0836
1 9.35662 11.2955 18.6615
2 7.39803 11.2768 19.0523
1 7.39459 13.2299 19.3948
1 7.38633 11.2883 21.013
2 7.29564 13.2416 21.3576
1 9.17867 13.241 21.5116
1 7.25129 13.2556 23.3108
1 9.35934 11.1042 24.2893
1 9.34824 13.251 26.1243
2 9.34873 11.2743 26.2131
1 7.41757 11.3114 26.5367
1 9.35311 11.2848 28.1797
2 7.39704 15.1971 -0.0469214
1 7.39277 17.1048 0.344364
1 7.37796 15.1908 1.93579
2 7.41161 17.0565 2.37217
1 9.3532 17.0803 2.79411
1 7.43011 17.1044 4.35667
2 9.36159 17.1769 4.7583
1 9.35331 15.0911 5.36081
1 9.37071 17.2524 6.70743
2 9.33926 15.4825 7.23302
1 7.45311 15.1588 7.54791
1 9.34958 15.165 9.11995
2 7.40015 15.0848 9.52324
1 7.47824 16.956 9.94849
1 7.41776 15.1333 11.5252
2 7.44287 17.1054 11.8829
1 9.3971 17.1117 12.2363
1 7.56634 17.0682 13.8167
2 9.44463 17.1321 14.2317
1 9.37965 15.1884 14.61
1 9.36642 17.009 16.1666
2 9.36065 15.1665 16.652
1 7.41685 15.1905 17.0504
1 9.35687 15.1917 18.6278
2 7.41643 15.1868 19.0272
1 7.39913 17.1322 19.4261
1 7.39336 15.1899 20.9971
2 7.3878 17.1207 21.4097
1 9.33476 17.1624 21.8125
1 7.39133 17.1412 23.3888
2 9.32869 17.2154 23.7918
1 9.34108 15.3559 24.282
1 9.35271 17.1723 25.8176
2 9.34478 15.217 26.2146
1 7.39699 15.2086 26.5744
1 9.35095 15.2296 28.1752
2 7.40967 19.0595 -0.0524463
1 7.43519 21.0228 0.0435934
1 7.43879 18.916 1.88486
1 9.61745 21.0225 2.90297
1 7.37833 21.0344 4.7163
2 9.30082 21.0628 4.76534
1 9.37934 19.1294 5.09896
1 9.49114 21.0639 6.74898
2 9.31544 19.1183 7.07811
1 7.40656 19.1045 7.13282
1 9.48189 19.0672 8.99674
1 7.41992 21.041 10.083
1 7.40148 19.0626 11.8577
2 7.38062 21.0357 11.958
1 9.31075 21.0567 12.2213
1 7.36103 21.0383 13.9107
2 9.26644 21.0452 14.2182
1 9.36208 19.0854 14.3138
1 9.3519 21.1495 16.1579
1 7.22825 19.0918 17.1271
1 9.35008 19.0893 18.9714
2 7.37615 19.0665 19.0555
1 7.39636 20.9809 19.4076
1 7.36872 19.048 21.0314
2 7.40933 20.9352 21.4208
1 9.35463 21.0071 21.8242
1 7.4109 21.0017 23.3961
2 9.35913 20.9522 23.7965
1 9.3483 19.0839 24.2143
1 9.3648 20.9887 25.8181
2 9.35618 19.0792 26.2038
1 7.40524 19.0517 26.5645
1 9.35493 19.0634 28.1699
2 7.50803 22.9972 -0.0504251
1 7.42806 24.9778 0.348114
1 7.40448 23.1536 1.87731
2 7.32087 25.0305 2.35584
1 9.19095 24.9655 2.84648
1 7.36189 24.9478 4.37004
2 9.33741 24.9391 4.77461
1 9.36939 23.0005 5.14147
1 9.34495 24.9516 6.75263
2 9.42301 23.057 7.10167
1 7.55871 22.9548 7.26383
1 9.57799 23.037 9.01697
1 7.41566 25.1058 10.002
1 7.39058 23.0104 11.8686
2 7.4024 24.9761 11.9291
1 9.34675 24.9396 12.2559
1 7.39475 24.9631 13.8903
2 9.3412 24.9344 14.2238
1 9.34176 22.9869 14.6152
1 9.3328 24.8132 16.1619
2 9.34547 22.9799 16.6643
1 7.3931 22.9331 17.0402
1 9.34931 22.9731 18.6292
2 7.39316 22.9487 18.9983
1 7.38524 24.9161 19.0768
1 7.41383 22.8027 20.9278
1 9.54263 24.915 21.5565
1 7.2504 24.8909 23.7666
1 9.37452 22.8102 24.2759
1 9.38361 24.9377 26.1236
2 9.38721 22.9606 26.2061
1 7.46153 22.9956 26.5355
1 9.40222 22.9494 28.1836
2 11.3092 26.8892 -0.0521087
1 11.3012 1.5796 0.368359
1 11.3061 -0.241004 1.88712
2 11.3034 1.62265 2.37909
1 13.2532 1.53604 2.76532
1 11.3067 1.52325 4.34157
2 13.2511 1.45278 4.73728
1 13.2554 26.8298 5.14897
1 13.2462 1.50223 6.74558
2 13.2512 -0.404405 7.13752
1 11.3024 26.8583 7.54185
1 13.2492 26.8695 9.10551
2 11.3086 -0.37753 9.51088
1 11.3276 1.56106 9.91529
1 11.3261 26.8682 11.4794
2 11.3766 1.56441 11.8883
1 13.2786 1.53066 12.2799
1 11.3556 1.56822 13.8847
2 13.2734 1.56684 14.262
1 13.2438 -0.38149 14.6457
1 13.1889 1.44649 16.2053
2 13.3046 26.8219 16.6589
1 11.3998 -0.3869 17.1165
1 13.1488 -0.384138 18.6153
2 11.249 26.8813 19.0714
1 11.312 1.59095 19.4634
1 11.35 26.8715 21.0391
2 11.3267 1.55112 21.4411
1 13.2514 1.57498 21.808
1 11.343 1.56763 23.4138
2 13.2699 1.57675 23.7974
1 13.2836 26.8878 24.2173
1 13.253 1.57492 25.7813
2 13.271 -0.363831 26.1836
1 11.3143 26.9135 26.5638
1 13.2591 26.88 28.1504
2 11.2519 3.46309 28.576
1 11.2034 5.34595 0.486214
1 11.3026 3.50139 2.01004
2 11.3452 5.39612 2.4051
1 13.262 5.57365 2.3977
1 11.154 5.50657 4.31573
1 13.2663 3.32374 5.20849
1 13.2706 5.44484 7.05592
2 13.2571 3.47119 7.14633
1 11.3276 3.48395 7.52442
1 13.2609 3.47191 9.1246
2 11.3307 3.50498 9.50693
1 11.3122 5.45609 9.88956
1 11.3197 3.52895 11.4774
2 11.2108 5.48017 11.8612
1 13.0774 5.51306 12.3549
1 11.2201 5.51308 13.8763
2 13.206 5.49592 14.2869
1 13.2112 3.53321 14.354
1 13.0736 5.6242 16.2221
1 13.1647 3.55428 18.8627
2 11.304 3.51701 19.2882
1 11.2952 5.44059 19.4625
1 11.3202 3.52506 21.1602
2 11.3087 5.46773 21.4627
1 13.2678 5.47538 21.8492
1 11.3084 5.47632 23.422
2 13.2692 5.44596 23.8057
1 13.2494 3.51623 24.2217
1 13.2499 5.46018 25.776
2 13.185 3.51404 26.2061
1 11.2848 3.52371 26.5981
1 13.1686 3.5332 28.2329
1 11.3796 9.49205 0.468986
1 11.1387 7.39888 2.59559
2 11.4866 9.46159 2.39731
1 13.3871 9.33214 2.74521
1 11.519 9.27635 4.32999
2 13.3904 9.46284 4.79792
1 13.0612 7.57938 5.22743
1 13.2888 9.43356 6.77543
2 13.2829 7.43358 7.14366
1 11.3188 7.36221 7.41603
1 13.2409 7.43984 9.09553
2 11.3123 7.3972 9.45326
1 11.3149 9.35176 9.85778
1 11.2985 7.41414 11.4434
2 11.3423 9.3464 11.8227
1 13.2658 9.37198 12.2699
1 11.3066 9.35512 13.7953
2 13.2425 9.37155 14.248
1 13.2395 7.45463 14.6568
1 13.2345 9.38311 16.2375
2 13.2114 7.50546 16.6613
1 11.2479 7.48055 17.0899
1 13.24 7.41472 18.6264
2 11.3079 7.38727 19.0593
1 11.2971 9.30068 19.4258
1 11.3135 7.37195 21.0281
2 11.3018 9.25416 21.4324
1 13.2551 9.33822 21.8216
1 11.3029 9.30731 23.3987
2 13.2568 9.34437 23.789
1 13.2815 7.39334 24.1562
1 13.2377 9.33644 25.7587
2 13.2509 7.40126 26.105
1 11.2927 7.38752 26.2752
1 13.4313 7.40375 28.0273
2 11.29 11.3766 28.5513
1 11.3207 13.2843 0.345966
1 11.3845 11.3667 1.97882
2 11.3404 13.2843 2.30244
1 13.2701 13.2932 2.74359
1 11.2895 13.3018 4.25265
2 13.23 13.2731 4.72255
1 13.2768 11.3501 5.13778
1 13.1849 13.2599 6.71091
2 13.2244 11.3492 7.13839
1 11.2756 11.3133 7.56387
1 13.2405 11.3274 9.10768
2 11.3153 11.3077 9.52935
1 11.2872 13.2368 9.92647
1 11.3251 11.2874 11.4827
2 11.2976 13.2248 11.8991
1 13.2315 13.2312 12.3108
1 11.2752 13.1831 13.8803
2 13.2318 13.2174 14.2792
1 13.2435 11.2973 14.6681
1 13.2191 13.2162 16.2653
2 13.2259 11.2917 16.6544
1 11.2493 11.2173 17.0581
1 13.2426 11.2858 18.6236
2 11.3105 11.259 19.0234
1 11.2935 13.2327 19.0627
1 11.3093 11.1237 20.9502
1 13.4564 13.2455 21.8866
1 11.4923 13.2442 23.6755
2 13.3787 13.2426 23.8376
1 13.247 11.2905 24.1931
1 13.2602 13.2496 25.8
2 13.1976 11.2857 26.1541
1 11.2819 11.2976 26.5707
1 13.2183 11.3009 28.1485
2 11.2941 15.2195 28.5498
1 11.2974 17.1412 0.380884
1 11.3114 15.2077 1.94747
2 11.2987 17.1224 2.36757
1 13.2385 17.1401 2.77609
1 11.2825 17.1083 4.34885
2 13.2282 17.1328 4.7437
1 13.2256 15.1952 5.13369
1 13.1923 17.1204 6.72231
2 13.165 15.1829 7.11213
1 11.2216 15.149 7.53287
1 13.1754 15.165 9.09613
2 11.2729 15.1664 9.53009
1 11.2882 17.1239 9.89677
1 11.2996 15.1694 11.4973
2 11.3044 17.1275 11.873
1 13.2177 17.1154 12.286
1 11.3295 17.1212 13.8649
2 13.2386 17.0279 14.2803
1 13.2251 15.1342 14.6861
1 13.2695 17.0822 16.282
2 13.2474 15.161 16.6647
1 11.3033 15.2175 17.0366
1 13.2466 15.1789 18.6361
2 11.305 15.2131 18.9984
1 11.2959 17.1876 19.4039
1 11.286 15.3578 20.9261
2 11.2782 17.234 21.4075
1 13.198 17.1459 21.7947
1 11.2629 17.1617 23.3876
2 13.1516 17.1433 23.8031
1 13.2521 15.1966 24.2068
1 13.227 17.1464 25.7735
2 13.2379 15.2003 26.1767
1 11.2927 15.205 26.5753
1 13.233 15.2393 28.1457
2 11.3037 19.0593 -0.0239558
1 11.3338 20.9707 0.362313
1 11.3178 19.0445 1.97367
2 11.4168 20.9261 2.3314
1 13.247 21.0141 2.82622
1 11.3561 21.0466 4.77564
2 13.347 21.0287 4.75777
1 13.2394 19.0755 5.1385
1 13.2046 21.0236 6.73987
2 13.3113 19.024 7.09395
1 11.321 19.3235 7.41608
1 13.1276 19.0287 9.00687
2 11.3021 19.0707 9.51839
1 11.3093 21.0355 9.8178
1 11.2959 19.0963 11.4605
2 11.2765 21.043 11.8136
1 13.2436 21.0475 11.9115
1 11.1448 21.0524 13.7529
1 13.261 18.9138 14.756
1 13.279 21.0308 16.5889
2 13.3488 19.0583 16.6835
1 11.4749 19.0781 17.1274
1 13.2967 19.0682 18.68
2 11.3235 19.106 19.0545
1 11.3073 21.0424 19.4281
1 11.3186 19.1249 21.0281
2 11.3072 21.0474 21.4153
1 13.2499 21.0332 21.8282
1 11.3062 21.0298 23.3925
2 13.2463 21.0342 23.8031
1 13.2302 19.088 24.207
1 13.2499 21.0259 25.7762
2 13.2447 19.0878 26.1828
1 11.3061 19.0759 26.59
1 13.2494 19.0774 28.1576
2 11.328 22.949 -0.0438882
1 11.3172 24.9248 0.0487833
1 11.353 22.7997 1.89279
1 13.4159 24.9189 2.84004
1 11.3088 24.9124 4.69238
2 13.2773 24.9077 4.77623
1 13.3001 22.9778 5.17012
1 13.2852 24.9287 6.75874
2 13.3599 23.0286 7.12927
1 11.3931 22.7744 7.43081
1 13.3037 23.0223 9.09065
2 11.4265 23.0023 9.51391
1 11.3339 24.9382 9.90498
1 11.3147 22.9818 11.4638
2 11.2967 24.9299 11.8825
1 13.2378 24.9311 12.2958
1 11.2871 24.9447 13.8568
2 13.2349 25.0035 14.2632
1 13.2328 23.1361 14.7454
1 13.2507 24.9412 16.2822
2 13.251 22.989 16.6844
1 11.2976 22.9791 17.0601
1 13.2554 22.9818 18.6526
2 11.3072 22.9823 19.0318
1 11.3266 24.9258 19.4196
1 11.318 22.9748 21.0081
2 11.4226 24.921 21.3878
1 13.3067 24.9061 21.8131
1 11.4997 24.9305 23.3493
2 13.3513 24.9323 23.8353
1 13.2709 22.9785 24.2193
1 13.2818 24.9382 25.7976
2 13.258 22.9735 26.1859
1 11.3235 22.947 26.5594
1 13.2537 22.9694 28.1633
2 15.1927 26.8662 -0.0169578
1 15.2167 1.54335 0.343943
1 15.2016 26.8498 1.94485
2 15.211 1.48269 2.36189
1 17.1552 1.50351 2.78293
1 15.197 1.50394 4.33719
2 17.1371 1.45882 4.75514
1 17.1419 26.8321 5.15893
1 17.1342 1.49993 6.75358
2 17.1441 -0.415101 7.13841
1 15.1992 26.8482 7.53257
1 17.1452 26.8506 9.10478
2 15.1953 -0.393845 9.50071
1 15.2019 1.50719 9.88574
1 15.1919 26.8481 11.4933
2 15.2113 1.46838 11.9035
1 17.1508 1.52819 12.3051
1 15.211 1.56624 13.8825
2 17.174 1.57392 14.2703
1 17.1831 -0.373184 14.6371
1 17.1724 1.58095 16.239
2 17.1774 -0.368848 16.5954
1 15.2277 -0.370499 16.6936
1 17.2712 26.8932 18.5302
1 15.1521 1.75791 19.4733
1 15.1886 26.8867 21.3498
2 15.1594 1.59587 21.3952
1 17.0983 1.59192 21.728
1 15.1928 1.61367 23.3739
2 17.1158 1.54665 23.615
1 17.1153 -0.144139 24.4737
2 17.1339 26.5943 26.2974
1 15.24 -0.338473 26.5995
1 17.1391 -0.414785 28.1858
2 15.0497 3.46833 0.0347361
1 15.2296 5.50352 0.461408
1 15.2189 3.37263 1.94187
2 15.0911 5.15058 2.39208
1 16.865 5.68843 2.42102
1 15.1004 5.45359 4.22618
1 17.1282 3.33706 5.21686
1 17.1464 5.44654 7.04724
2 17.1348 3.46662 7.15518
1 15.1958 3.46033 7.50832
1 17.1379 3.46611 9.12371
2 15.1969 3.47542 9.479
1 15.1946 5.45863 9.58287
1 15.2155 3.33738 11.4121
1 17.1419 5.4634 12.4884
1 15.1701 5.46698 14.2788
2 17.1707 5.45137 14.3617
1 17.1787 3.51344 14.684
1 17.1713 5.46124 16.3081
2 17.2503 3.51582 16.6627
1 15.3605 3.53878 17.1105
1 17.1632 3.54685 18.6659
2 15.1684 3.62708 19.0306
1 15.1788 5.50454 19.4399
1 15.1795 3.57089 21.0367
2 15.1994 5.47973 21.4335
1 17.1396 5.47645 21.8359
1 15.2499 5.41052 23.4342
2 17.1654 5.62378 23.7585
1 17.1592 3.12462 24.5973
1 17.1935 5.55908 25.6837
2 16.7762 3.87194 26.1981
1 15.068 3.54146 26.7057
1 17.4618 3.46529 27.8372
2 15.2825 7.26166 28.3287
1 15.4086 8.97628 0.645116
2 15.2358 9.66479 2.437
1 17.1492 9.3047 2.59131
1 15.265 9.4147 4.32925
2 17.1262 9.36201 4.73671
1 17.143 7.52449 5.21963
1 17.109 9.40406 6.72515
2 17.137 7.43085 7.15906
1 15.2025 7.44651 7.50486
1 17.1319 7.43795 9.12874
2 15.1871 7.43905 9.47612
1 15.1882 9.40647 9.87882
1 15.2036 7.5761 11.4064
2 15.2023 9.4426 11.8935
1 17.1371 9.36791 12.3052
1 15.1951 9.3697 13.8683
2 17.1394 9.35485 14.2785
1 17.1672 7.40083 14.6781
1 17.1415 9.34821 16.251
2 17.14 7.4055 16.6516
1 15.1778 7.41573 17.0527
1 17.1367 7.42379 18.619
2 15.1892 7.42318 19.0327
1 15.1867 9.35011 19.4403
1 15.2093 7.41624 21.0276
2 15.203 9.35469 21.4202
1 17.1462 9.36902 21.8271
1 15.1973 9.36146 23.3957
2 17.1403 9.38167 23.8115
1 17.1777 7.50132 24.1565
1 17.1452 9.36413 25.9241
2 17.2173 7.44135 26.1094
1 15.2586 7.3645 26.4541
1 17.196 7.56437 28.1256
2 15.054 11.5586 -0.0911383
1 15.1528 13.3775 0.3456
1 15.1965 11.4221 1.84745
2 15.2013 13.331 2.34493
1 17.1363 13.297 2.79156
1 15.1771 13.2554 4.33111
2 17.074 13.332 4.74948
1 17.3292 11.3172 5.08319
1 17.0731 13.2504 6.69735
2 17.1023 11.3208 7.11585
1 15.1762 11.3452 7.51506
1 17.137 11.2971 9.07214
2 15.1861 11.3085 9.49116
1 15.1591 13.2172 9.91074
1 15.195 11.3217 11.4887
2 15.1831 13.2313 11.9064
1 17.131 13.2159 12.3092
1 15.186 13.2286 13.88
2 17.1349 13.2341 14.2798
1 17.1317 11.2949 14.6862
1 17.1334 13.2383 16.2517
2 17.136 11.2963 16.6562
1 15.1902 11.2948 17.059
1 17.1361 11.2895 18.6286
2 15.1912 11.2927 19.0303
1 15.2132 13.2372 19.4325
1 15.2192 11.2927 21.0041
2 15.3111 13.2398 21.3993
1 17.1894 13.2262 21.814
1 15.2782 13.2248 23.4199
2 17.1786 13.141 23.808
1 17.1268 11.2547 24.225
1 17.1227 13.2028 25.8289
2 17.0934 11.308 26.189
1 15.1019 11.3299 26.5374
1 16.8501 11.0457 28.1142
2 15.1676 15.2687 28.5504
1 15.1812 17.1714 0.384904
1 15.1914 15.2461 1.96986
2 15.1774 17.1681 2.37074
1 17.1156 17.1683 2.76538
1 15.1769 17.1594 4.34811
2 17.1283 17.1614 4.74148
1 17.08 15.2295 5.12123
1 17.1289 17.1539 6.72156
2 16.993 15.201 7.08233
1 15.0833 15.1834 7.48909
1 16.9142 15.1694 9.0212
2 15.0568 15.0967 9.50791
1 15.1305 16.969 9.99202
1 15.1505 15.1379 11.5172
2 15.1017 17.1192 11.92
1 16.9702 17.1238 12.3769
1 15.1474 17.085 13.9215
2 17.112 17.1314 14.311
1 17.1362 15.18 14.681
1 17.1084 17.1302 16.2751
2 17.1289 15.1833 16.6529
1 15.1894 15.1596 17.0588
1 17.1329 15.1789 18.6259
2 15.1911 15.1841 19.0311
1 15.1684 17.1251 19.4116
1 15.2065 15.1854 21.0045
2 15.1608 17.1285 21.3808
1 17.1176 17.1263 21.4412
1 15.0258 17.1357 23.3173
1 17.1684 15.0211 24.273
1 17.138 17.1512 26.1196
2 17.1133 15.1768 26.201
1 15.1772 15.2141 26.5659
1 17.0998 15.2019 28.1754
2 15.185 19.1014 28.565
1 15.1754 21.0344 0.391238
1 15.1801 19.0988 1.96316
2 15.1946 21.0344 2.36723
1 17.1252 21.0363 2.7527
1 15.23 21.0307 4.34865
2 17.1529 21.0375 4.74066
1 17.1817 19.0947 5.11269
1 17.1592 21.0433 6.71234
2 17.1762 19.1044 7.08002
1 15.2255 19.0795 7.16164
1 17.3072 19.1376 9.01132
1 15.2565 21.2052 9.95453
1 15.175 19.0933 11.8386
2 15.2092 21.0572 11.8888
1 17.1854 21.0662 12.2765
1 15.3582 21.0794 13.8217
2 17.2362 21.0384 14.2812
1 17.1455 19.0855 14.6809
1 17.1593 21.0279 16.2493
2 17.1559 19.0809 16.6563