1800
Atoms. Timestep: 576
2 -0.211489 -0.184305 -0.0875025
1 -0.207384 1.71811 0.329318
1 -0.202687 -0.211507 1.89533
2 -0.206213 1.70941 2.31182
1 1.70502 1.71252 2.70675
1 -0.202004 1.71118 4.29425
2 1.71759 1.7109 4.70264
1 1.71173 -0.196938 5.12514
1 1.71805 1.70595 6.69452
2 1.70691 -0.205038 7.10567
1 -0.214725 -0.20786 7.50464
1 1.69844 -0.192279 9.08508
2 -0.207314 -0.207345 9.49362
1 -0.213214 1.71014 9.91373
1 -0.184281 -0.220434 11.4735
2 -0.184458 1.70329 11.883
1 1.72719 1.70836 12.2959
1 -0.187115 1.71793 13.8691
2 1.71977 1.71491 14.2749
1 1.70875 -0.210564 14.6796
1 1.71786 1.71219 16.2579
2 1.71377 -0.208357 16.6575
1 -0.209246 -0.203938 17.0716
1 1.71734 -0.230568 18.6289
2 -0.196313 -0.218116 19.059
1 -0.0844101 1.67352 19.4981
1 -0.214726 -0.22004 21.0535
2 -0.196112 1.71253 21.4511
1 1.71181 1.73833 21.8712
1 -0.208881 1.71507 23.4332
2 1.71731 1.7142 23.8416
1 1.70982 -0.203377 24.2424
1 1.71616 1.71384 25.8229
2 1.71385 -0.206594 26.2252
1 -0.208616 -0.194181 26.6229
1 1.71222 -0.19044 28.2055
2 -0.208217 3.63539 -0.0781201
1 -0.207905 5.55411 0.333077
1 -0.208682 3.6331 1.90283
2 -0.212306 5.55561 2.30136
1 1.72184 5.55811 2.71339
1 -0.203223 5.54124 4.23294
2 1.68674 5.5485 4.70717
1 1.71932 3.62146 5.10434
1 1.6082 5.51421 6.67077
2 1.70888 3.62336 7.09808
1 -0.174972 3.50381 7.53576
1 1.70853 3.63785 9.09619
2 -0.211213 3.62257 9.4986
1 -0.209222 5.55463 9.89787
1 -0.186599 3.63565 11.4849
2 -0.193443 5.56842 11.8773
1 1.70997 5.58328 12.2981
1 -0.192327 5.55303 13.8734
2 1.71908 5.55666 14.2719
1 1.72104 3.63627 14.6772
1 1.72407 5.55623 16.2435
2 1.71662 3.63639 16.6619
1 -0.187973 3.6374 17.046
1 1.70813 3.63697 18.6403
2 -0.322777 3.63286 19.0281
1 -0.106464 5.58542 19.5057
1 -0.250031 3.62918 21.0197
2 -0.193341 5.54731 21.4469
1 1.72931 5.56027 21.8545
1 -0.171639 5.43912 23.3935
2 1.7246 5.54883 23.8374
1 1.73653 3.62762 24.2507
1 1.70919 5.55723 25.818
2 1.71511 3.63599 26.2272
1 -0.205572 3.62966 26.6331
1 1.71323 3.63682 28.2078
2 -0.206233 7.47846 -0.0693312
1 -0.201838 9.40069 0.326332
1 -0.218925 7.47868 1.90163
2 -0.223918 9.40366 2.30913
1 1.68894 9.39127 2.68942
1 -0.214733 9.42605 4.278
2 1.81511 9.39636 4.67324
1 1.62618 7.44292 5.15993
1 1.64951 9.42785 6.6466
2 1.82295 7.48694 7.13122
1 -0.163831 7.59758 7.55959
1 1.70754 7.47019 9.12155
2 -0.206159 7.49239 9.50093
1 -0.215018 9.41315 9.90869
1 -0.193451 7.4926 11.4705
2 -0.205547 9.40647 11.8847
1 1.71686 9.40802 12.2935
1 -0.196822 9.38361 13.8577
2 1.71686 9.40216 14.2757
1 1.71969 7.48081 14.6789
1 1.70825 9.40342 16.2579
2 1.71409 7.4703 16.6547
1 -0.218404 7.48397 17.0618
1 1.69035 7.38322 18.6004
2 -0.20371 7.47926 19.0567
1 -0.219452 9.40593 19.4537
1 -0.205178 7.49406 21.0515
2 -0.205377 9.41907 21.4421
1 1.7065 9.39294 21.8931
1 -0.184388 9.52492 23.4047
2 1.72308 9.41208 23.8409
1 1.72829 7.47811 24.2391
1 1.71042 9.40218 25.8176
2 1.70897 7.47921 26.2234
1 -0.188972 7.47966 26.6824
1 1.72372 7.47309 28.2139
2 -0.220055 11.3243 -0.0775488
1 -0.181341 13.2453 0.355192
1 -0.351328 11.319 1.88503
2 -0.031952 13.2532 2.33884
1 1.74141 14.0302 2.81688
1 -0.134405 13.2947 4.29862
2 1.75078 13.224 4.61774
1 1.59109 11.3257 5.15726
1 1.7261 13.17 6.66254
2 1.69294 11.2954 7.10474
1 -0.231845 11.3454 7.51937
1 1.71273 11.3177 9.07967
2 -0.211917 11.3274 9.49434
1 -0.192382 13.2528 9.88007
1 -0.201081 11.3269 11.4731
2 -0.198371 13.2483 11.8694
1 1.70895 13.2461 12.285
1 -0.213176 13.2438 13.851
2 1.70539 13.2469 14.2657
1 1.71652 11.3243 14.6767
1 1.71507 13.2508 16.2406
2 1.71348 11.3362 16.6564
1 -0.211824 11.3185 17.0704
1 1.68142 11.4419 18.6094
2 -0.213064 11.3374 19.051
1 -0.229 13.2591 19.4687
1 -0.20369 11.3308 21.0241
2 -0.208467 13.253 21.4476
1 1.71158 13.2516 21.8542
1 -0.208006 13.246 23.4296
2 1.71467 13.2477 23.8371
1 1.73471 11.3356 24.2534
1 1.7131 13.2462 25.8259
2 1.71348 11.3251 26.2294
1 -0.206646 11.3325 26.6345
1 1.7107 11.3209 28.2103
2 -0.218782 15.1617 -0.0823994
1 -0.203345 17.0771 0.293213
1 -0.355717 15.1725 1.87875
2 -0.252634 17.0764 2.27801
1 1.70918 17.08 2.61019
1 -0.221078 17.0566 4.2484
2 1.7044 17.0734 4.48373
1 1.7142 15.419 5.38081
2 1.71379 14.9219 7.19477
1 -0.174262 15.2182 7.49565
1 1.70974 15.1727 9.08252
2 -0.215972 15.1768 9.49255
1 -0.212908 17.0889 9.89461
1 -0.204462 15.1713 11.4703
2 -0.201367 17.0913 11.8773
1 1.71565 17.0848 12.2848
1 -0.197215 17.1081 13.8546
2 1.71322 17.0909 14.2701
1 1.71301 15.1688 14.6716
1 1.70646 17.0863 16.2485
2 1.71066 15.1682 16.6592
1 -0.201274 15.1607 17.0813
1 1.71817 15.1575 18.6472
2 -0.206561 15.1683 19.0576
1 -0.205361 17.07 19.4381
1 -0.20599 15.1761 21.0337
2 -0.206851 17.2081 21.422
1 1.75092 16.9698 21.8895
1 -0.207369 17.1293 23.4219
2 1.71268 17.0764 23.8421
1 1.71082 15.1615 24.2559
1 1.71066 17.0879 25.8203
2 1.71349 15.1665 26.2328
1 -0.209386 15.1626 26.6309
1 1.70949 15.1578 28.2121
2 -0.21985 19.0098 -0.0902114
1 -0.174766 20.9186 0.325405
1 -0.355841 18.9492 1.83848
2 -0.0600225 21.0602 2.32922
1 1.79262 21.5247 2.83505
1 -0.17611 20.9361 4.36813
2 1.84646 20.9433 4.64324
1 1.63694 18.6816 5.43218
1 1.74956 21.0165 6.64452
2 1.69982 19.2662 7.20228
1 -0.181577 18.9627 7.52199
1 1.71246 19.011 9.08873
2 -0.217033 19.0013 9.50112
1 -0.198363 20.9271 9.88354
1 -0.205272 19.0108 11.4719
2 -0.201681 20.9306 11.8746
1 1.71123 20.9354 12.2862
1 -0.205672 20.9377 13.8624
2 1.71063 20.9331 14.2703
1 1.70643 19.0123 14.6765
1 1.71323 20.9356 16.2498
2 1.70961 19.0102 16.65
1 -0.205952 19.0116 17.0604
1 1.73268 19.0143 18.5922
2 -0.20356 19.0112 19.1501
1 -0.205095 20.9529 19.4381
1 0.548935 19.0071 20.9913
2 -0.208699 20.8127 21.4218
1 1.73994 21.0299 21.8971
1 -0.209566 20.8924 23.4239
2 1.7167 20.9422 23.8402
1 1.7166 19.0094 24.236
1 1.7067 20.9299 25.8113
2 1.7073 19.0107 26.2198
1 -0.213355 19.0097 26.6267
1 1.71037 19.0049 28.2013
2 -0.239307 22.8667 -0.0369254
1 -0.251468 24.8321 0.255664
1 0.427188 23.017 1.73026
2 -0.23183 24.7199 2.27866
1 1.76053 24.9116 2.76446
1 -0.221436 24.7555 4.27855
2 1.70526 24.8122 4.71031
1 1.60581 22.9498 5.16953
1 1.69882 24.8004 6.7132
2 1.70247 22.8965 7.10773
1 -0.220863 22.8546 7.52492
1 1.71352 22.8524 9.08343
2 -0.210214 22.8542 9.49735
1 -0.20532 24.7734 9.89618
1 -0.210806 22.8505 11.4721
2 -0.207303 24.7716 11.8809
1 1.70484 24.7539 12.2949
1 -0.206891 24.7759 13.8651
2 1.71375 24.7756 14.2719
1 1.71552 22.8557 14.6765
1 1.71556 24.7756 16.2536
2 1.71355 22.8546 16.6565
1 -0.208251 22.8588 17.0625
1 1.71006 22.8642 18.63
2 -0.207527 22.8564 19.0512
1 -0.201457 24.7717 19.4661
1 -0.207312 22.8477 21.0309
2 -0.202145 24.7656 21.4468
1 1.7203 24.777 21.8574
1 -0.204641 24.7753 23.426
2 1.71411 24.7786 23.8331
1 1.7046 22.8583 24.2501
1 1.70978 24.7824 25.8171
2 1.71051 22.8553 26.2103
1 -0.21346 22.8538 26.6262
1 1.7383 22.8611 28.139
2 3.63217 -0.195388 -0.0806229
1 3.63559 1.71886 0.32567
1 3.66206 -0.195336 1.89717
2 3.63974 1.71697 2.30518
1 5.56058 1.71718 2.71519
1 3.61696 1.70855 4.24484
2 5.55917 1.70901 4.79936
1 5.56352 -0.222541 5.093
1 6.31824 1.71157 6.65043
2 5.55787 -0.0885112 7.07995
1 3.60274 -0.317624 7.54638
1 5.55826 -0.1728 9.08033
2 3.62346 -0.220295 9.49072
1 3.67161 1.71465 9.90102
1 3.51983 -0.243155 11.4377
2 3.75591 1.71209 11.903
1 5.56108 2.46947 12.331
1 3.61993 1.7148 13.8885
2 5.55945 1.71505 14.1763
1 5.53686 -0.217743 14.7377
1 5.55983 1.71753 16.2651
2 5.55807 -0.203269 16.677
1 3.63633 -0.207957 17.0734
1 5.55931 -0.200023 18.6548
2 3.62565 -0.205137 19.0496
1 3.64465 1.72741 19.4456
1 3.51768 -0.169492 20.9995
2 3.62772 1.7246 21.4398
1 5.55854 1.72944 21.8412
1 3.64177 1.70954 23.4267
2 5.55837 1.71557 23.8343
1 5.56057 -0.181599 24.2897
1 5.55838 1.72637 25.8309
2 5.55889 -0.206361 26.2333
1 3.63324 -0.206191 26.6323
1 5.54968 -0.182484 28.2034
2 3.63473 3.63428 -0.0805469
1 3.64339 5.54722 0.318903
1 3.61648 3.63063 1.89676
2 3.63163 5.54893 2.31915
1 5.52025 5.44514 2.76017
1 3.62021 5.55188 4.3225
2 5.57844 5.5356 4.70942
1 5.55409 3.63396 5.08739
1 5.66114 5.48772 6.66213
2 5.56535 3.50939 7.07737
1 3.60093 3.72305 7.53976
1 5.55689 3.60017 9.07914
2 3.62616 3.65251 9.49379
1 3.65479 5.55751 9.94859
1 3.51892 3.66057 11.4514
2 3.62866 5.57012 11.8904
1 5.56122 5.57354 12.2861
1 3.63926 5.55748 13.8645
2 5.55554 5.55554 14.2719
1 5.55598 3.65266 14.7297
1 5.55567 5.56395 16.2563
2 5.55666 3.63519 16.6733
1 3.63265 3.63953 17.0777
1 5.55767 3.6408 18.6489
2 3.63089 3.64758 19.0532
1 3.63831 5.56569 19.4653
1 3.63209 3.64102 21.0323
2 3.64129 5.55835 21.4433
1 5.56113 5.55003 21.8526
1 3.64213 5.54951 23.4328
2 5.55926 5.55602 23.8336
1 5.55978 3.63454 24.2411
1 5.55849 5.55461 25.8146
2 5.55846 3.63982 26.2271
1 3.63563 3.63847 26.6313
1 5.55632 3.63049 28.2077
2 3.63967 7.47797 -0.0853405
1 3.63295 9.39178 0.31281
1 3.62474 7.45694 1.86122
2 3.63822 9.40909 2.41584
1 5.55737 9.50105 2.74097
1 3.61897 10.1619 4.27856
2 5.44919 9.41768 4.68928
1 5.62918 7.4332 5.16692
1 5.63989 9.44234 6.64674
2 5.45236 7.47313 7.12652
1 3.63939 8.24128 7.55862
1 5.57639 7.49037 9.10582
2 3.64202 7.48456 9.39428
1 3.6366 9.42535 9.9512
1 3.63612 7.4875 11.4851
2 3.63851 9.40316 11.8919
1 5.56487 9.40666 12.2951
1 3.63814 9.39938 13.8671
2 5.56275 9.40151 14.2755
1 5.55836 7.48164 14.6766
1 5.5637 9.40132 16.2605
2 5.5605 7.4722 16.6574
1 3.63899 7.52269 17.0732
1 5.59385 7.36394 18.6085
2 3.63864 7.6008 19.0751
1 4.3955 9.4025 19.5022
1 3.64189 7.46132 21.058
2 3.63938 9.40055 21.3474
1 5.57409 9.39886 21.9012
1 3.63727 9.40559 23.4346
2 5.54949 9.40274 23.8439
1 5.55835 7.47568 24.2453
1 5.55325 9.40294 25.8152
2 5.56063 7.4784 26.2147
1 3.62489 7.48026 26.6163
1 5.54015 7.47964 28.1514
2 3.64607 11.32 -0.0941591
1 3.59372 13.2536 0.323841
1 3.74068 11.3133 1.82202
2 3.52891 13.2489 2.33821
1 5.54358 13.2427 2.73511
1 3.655 13.2859 4.34243
2 5.56238 13.2612 4.71396
1 5.66748 11.3792 5.15414
1 5.53861 13.2687 6.71751
2 5.57914 11.3384 7.10702
1 3.64286 11.3356 7.50423
1 5.55934 11.3263 9.08723
2 3.63736 11.323 9.49012
1 3.62368 13.2486 9.88023
1 3.63591 11.3365 11.4842
2 3.62271 13.2485 11.871
1 5.53478 13.248 12.252
1 3.62477 13.2477 13.8584
2 5.51022 13.2453 14.2567
1 5.54418 11.3177 14.6761
1 5.55249 13.2435 16.2315
2 5.55558 11.3345 16.6555
1 3.63587 11.284 17.0763
1 5.59764 11.4396 18.6063
2 3.63706 11.2048 19.0771
1 3.61752 13.2264 19.4717
1 3.63744 11.3407 21.0637
2 3.637 13.2452 21.4474
1 5.55767 13.2465 21.8603
1 3.63505 13.2542 23.4321
2 5.55861 13.2441 23.8392
1 5.55115 11.3273 24.2451
1 5.55464 13.2467 25.8208
2 5.5574 11.3248 26.2188
1 3.63491 11.3216 26.6289
1 5.56013 11.3289 28.1903
2 3.64332 15.1616 -0.086707
1 3.60785 17.0722 0.290792
1 3.76403 15.1954 1.86585
2 3.66929 17.0876 2.27987
1 5.56989 17.0736 2.74319
1 3.62615 17.0678 4.26176
2 5.55583 17.0823 4.71291
1 5.56844 15.1715 5.12177
1 5.54201 17.0761 6.70204
2 5.54147 15.1765 7.10529
1 3.59282 15.2303 7.51141
1 5.54886 15.155 9.07875
2 3.63708 15.1777 9.49829
1 3.64074 17.0899 9.90353
1 3.61536 15.1604 11.4687
2 3.63017 17.0801 11.8849
1 5.52724 16.9692 12.3254
1 3.62515 17.0963 13.8748
2 5.55625 17.0765 14.2795
1 5.54929 15.1678 14.6899
1 5.55763 17.0868 16.2633
2 5.55548 15.1538 16.6611
1 3.62476 15.175 17.0569
1 5.52556 15.0518 18.6069
2 3.63158 15.1507 19.0478
1 3.61714 17.0883 19.4535
1 3.66027 15.1572 21.024
2 3.64311 17.0775 21.4447
1 5.53668 17.0881 21.8999
1 3.6356 17.0967 23.4531
2 5.56124 17.089 23.8392
1 5.55635 15.1619 24.2405
1 5.55611 17.0813 25.8032
2 5.55328 15.1676 26.2202
1 3.63435 15.1655 26.6279
1 5.55802 15.1597 28.197
2 3.63691 19.0061 -0.0959445
1 3.57912 20.9348 0.32633
1 3.76986 18.9675 1.83034
2 3.57032 20.908 2.46112
1 5.54625 20.9366 2.77426
1 3.70292 21.6766 4.36334
2 5.45957 20.9201 4.71837
1 5.68645 18.9684 5.16312
1 5.5122 20.9276 6.70002
2 5.556 18.9996 7.09839
1 3.5815 18.9465 7.49779
1 5.5273 19.0157 9.02633
2 3.6388 18.9994 9.49996
1 3.62987 20.9249 9.88593
1 3.62257 19.0106 11.4841
2 3.62295 20.9402 11.8775
1 5.51196 21.0563 12.3126
1 3.62287 20.9213 13.874
2 5.55014 20.9391 14.2674
1 5.53772 19.0017 14.6779
1 5.56796 20.9396 16.239
2 5.56077 19.0226 16.6535
1 3.63594 19.0018 17.0422
1 5.52142 19.1251 18.6059
2 3.62923 19.0153 19.0483
1 3.61722 20.9284 19.4569
1 3.65218 19.0068 21.0408
2 3.63436 20.9355 21.4445
1 5.56002 20.9276 21.8431
1 3.64991 20.9278 23.4365
2 5.56633 20.9319 23.8356
1 5.56222 19.0146 24.2433
1 5.55195 20.9219 25.8324
2 5.54982 18.9933 26.2126
1 3.62207 19.0237 26.6145
1 5.5294 18.8807 28.1547
2 3.6385 22.8633 -0.0887292
1 3.59916 24.8048 0.316282
1 3.75783 22.9136 1.84062
2 3.65322 24.7965 2.31836
1 5.55942 24.7981 2.74826
1 3.64683 24.7759 4.32398
2 5.57484 24.7847 4.72022
1 5.70906 22.9036 5.17274
1 5.54958 24.8011 6.70413
2 5.57117 22.8632 7.11132
1 3.64159 22.8685 7.51012
1 5.55785 22.8535 9.08392
2 3.63795 22.851 9.4879
1 3.64473 24.7624 9.89455
1 3.60586 22.855 11.4652
2 3.6215 24.7669 11.8793
1 5.54594 24.7523 12.2666
1 3.63484 24.7839 13.8609
2 5.54994 24.7884 14.2689
1 5.54106 22.8648 14.6811
1 5.56295 24.7677 16.2691
2 5.55947 22.853 16.6705
1 3.63701 22.853 17.0691
1 5.54872 22.8476 18.6642
2 3.62134 22.8558 19.0476
1 3.67751 24.7797 19.4657
1 3.53808 22.8324 20.9948
2 3.75739 24.7788 21.4662
1 5.55803 25.5347 21.8898
1 3.61915 24.777 23.4487
2 5.56374 24.7811 23.7332
1 5.56476 22.8348 24.2843
1 5.5601 24.7876 25.7999
2 5.56236 22.873 26.2172
1 3.63693 22.8426 26.6046
1 5.51818 22.9913 28.144
2 7.47168 -0.196843 -0.0725857
1 7.47401 1.72063 0.333607
1 7.49307 -0.191694 1.91629
2 7.48027 1.72623 2.30908
1 9.41375 1.72252 2.70999
1 7.50216 1.7165 4.24806
2 9.402 1.71217 4.70145
1 9.4023 -0.207624 5.11224
1 9.4223 1.70446 6.68528
2 9.4105 -0.21703 7.09164
1 7.51426 -0.325384 7.53837
1 9.4132 -0.196098 9.06761
2 7.49326 -0.222148 9.48539
1 7.4247 1.70731 9.90616
1 7.5994 -0.239975 11.4286
2 7.36236 1.71283 11.9014
1 9.39589 1.70687 12.3061
1 7.50025 1.71553 13.8861
2 9.40167 1.70945 14.2732
1 9.40273 -0.219391 14.6904
1 9.40151 1.71217 16.2587
2 9.40084 -0.204674 16.6584
1 7.47948 -0.200613 17.0773
1 9.40988 -0.229806 18.6365
2 7.49629 -0.209004 19.0529
1 7.47475 1.72151 19.4501
1 7.61465 -0.181253 21.0078
2 7.48704 1.71992 21.4418
1 9.39761 1.76474 21.8658
1 7.47495 1.71241 23.4281
2 9.40128 1.72334 23.836
1 9.40469 -0.188346 24.2209
1 9.40256 1.7141 25.8188
2 9.40297 -0.205637 26.2242
1 7.48407 -0.208365 26.6408
1 9.40285 -0.185563 28.2206
2 7.48083 3.63395 -0.0811199
1 7.47699 5.5343 0.298065
1 7.48117 3.64646 1.89398
2 7.48068 5.66675 2.28436
1 9.44717 5.43814 2.7581
1 7.49602 5.58312 4.27004
2 9.40712 5.54362 4.7133
1 9.39995 3.62841 5.12724
1 9.4166 5.56273 6.6923
2 9.41154 3.62944 7.09246
1 7.51518 3.74432 7.53732
1 9.38346 3.49634 9.03771
2 7.48888 3.64012 9.48801
1 7.46233 5.57355 9.89363
1 7.59663 3.67172 11.4351
2 7.48661 5.56807 11.8827
1 9.377 5.57895 12.3507
1 7.46701 5.55498 13.8792
2 9.40431 5.56023 14.2845
1 9.40183 3.63895 14.6888
1 9.40299 5.55917 16.2582
2 9.40049 3.63419 16.6649
1 7.481 3.63922 17.0751
1 9.40141 3.63588 18.647
2 7.48017 3.63796 19.0543
1 7.5021 5.54895 19.4643
1 7.47955 3.63734 21.0375
2 7.48026 5.5569 21.445
1 9.39909 5.55693 21.8527
1 7.47929 5.55803 23.4291
2 9.39787 5.55661 23.8359
1 9.40212 3.63695 24.2431
1 9.40068 5.55084 25.8192
2 9.40293 3.635 26.2267
1 7.48144 3.63252 26.6287
1 9.40607 3.63002 28.208
2 7.4769 7.47712 0.0132351
1 7.48604 9.41929 0.309904
1 8.22801 7.44856 1.84243
2 7.4734 9.26906 2.2918
1 9.38515 9.41386 2.7967
1 7.45966 9.36121 4.29468
2 9.38762 9.39451 4.71959
1 9.38636 7.46827 5.12447
1 9.40537 9.4086 6.67844
2 9.39156 7.49113 7.09
1 7.45972 7.4739 7.50842
1 9.35961 7.60553 9.03335
2 7.4743 7.49634 9.49212
1 7.45782 9.418 9.91276
1 7.49011 7.4878 11.4785
2 7.48731 9.41018 11.8838
1 9.40444 9.41017 12.2979
1 7.48939 9.42047 13.868
2 9.40835 9.4171 14.2686
1 9.39644 7.48292 14.6834
1 9.39758 9.41172 16.24
2 9.40121 7.48699 16.6586
1 7.49063 7.49146 17.0564
1 9.40091 7.47131 18.6431
2 7.48662 7.47044 19.0487
1 7.50044 9.40369 19.4521
1 7.45577 7.47306 21.0265
2 7.47067 9.39344 21.4439
1 9.3636 9.29034 21.8938
1 7.46772 9.38823 23.4481
2 9.38833 9.37887 23.8448
1 9.39177 7.4684 24.2552
1 9.41167 9.38991 25.8246
2 9.40144 7.4731 26.2218
1 7.47997 7.47994 26.6254
1 9.42093 7.47197 28.156
2 7.47879 11.3221 -0.0727708
1 7.45673 13.2311 0.340035
1 7.46854 11.3221 1.90761
2 7.45654 13.2475 2.31653
1 9.3446 13.3537 2.7464
1 7.4704 13.264 4.3036
2 9.39071 13.2701 4.70719
1 9.38098 11.3321 5.11067
1 9.40025 13.2427 6.6911
2 9.40165 11.3269 7.09706
1 7.48878 11.3479 7.52278
1 9.3789 11.2937 9.08368
2 7.47559 11.3299 9.50128
1 7.50406 13.2496 9.9196
1 7.50878 11.3439 11.4901
2 7.48441 13.2544 11.8924
1 9.57522 13.2678 12.506
1 7.37937 13.2469 13.8359
2 9.13842 13.246 14.3551
1 9.46304 11.3715 14.6668
1 9.4051 13.241 16.2395
2 9.41699 11.3207 16.6529
1 7.4833 11.3259 17.0276
1 9.37705 11.3259 18.5862
2 7.48847 11.3403 19.0451
1 7.49938 13.2605 19.4731
1 7.45465 11.3225 21.0353
2 7.47159 13.2537 21.448
1 9.35466 13.349 21.8688
1 7.47241 13.2311 23.435
2 9.52163 13.2538 23.8129
1 9.28292 11.2845 24.2701
1 9.44511 13.24 25.7942
2 9.394 11.3213 26.2188
1 7.46841 11.3297 26.6265
1 9.38349 11.3303 28.1563
2 7.46656 15.1594 -0.0771088
1 7.47003 17.0938 0.335584
1 7.44116 15.1638 1.89099
2 7.47402 17.0628 2.32737
1 9.35276 16.9676 2.79998
1 7.47354 17.067 4.3286
2 9.40623 17.08 4.7229
1 9.38486 15.1731 5.14855
1 9.39905 17.0943 6.69543
2 9.39682 15.1664 7.11126
1 7.47735 15.1628 7.51135
1 9.40536 15.1687 9.07727
2 7.48066 15.1637 9.49125
1 7.47244 17.065 9.87409
1 7.50701 15.1582 11.473
2 7.48397 17.2063 11.8592
1 9.43167 16.9715 12.3381
1 7.48454 17.1116 13.866
2 9.41071 17.0654 14.2817
1 9.46352 15.1181 14.6827
1 9.40078 17.0814 16.2477
2 9.41394 15.1581 16.6627
1 7.48345 15.1982 17.0621
1 9.4309 15.0577 18.6015
2 7.48064 15.2888 19.0727
1 8.23811 17.095 19.4991
1 7.45302 15.1613 21.0537
2 7.47983 17.0939 21.3479
1 9.42062 17.0719 21.9048
1 7.4707 17.109 23.4255
2 9.39 17.0882 23.8412
1 9.28418 15.199 24.2882
1 9.39999 17.0973 25.816
2 9.38745 15.1568 26.2289
1 7.4625 15.1764 26.6284
1 9.35322 15.0339 28.1655
2 7.46323 19.0954 -0.0440055
1 8.11261 20.8189 0.529476
1 7.43387 18.9593 1.97792
2 7.44184 20.9353 2.28937
1 9.38542 21.0721 2.83245
1 7.4597 20.922 4.31762
2 9.39636 20.9462 4.73495
1 9.39626 19.0129 5.12029
1 9.40164 20.9368 6.69344
2 9.39845 19.0136 7.09085
1 7.47933 19.0089 7.51592
1 9.41586 19.0319 9.02632
2 7.47763 19.0094 9.58008
1 7.47909 20.9499 9.87332
1 8.23903 19.0081 11.4209
2 7.47973 20.7989 11.8528
1 9.43224 21.0806 12.3287
1 7.44638 20.7808 13.8175
2 9.40128 21.065 14.2921
1 9.40717 19.0098 14.6843
1 9.39885 20.918 16.2652
2 9.40242 19.0167 16.6571
1 7.48296 18.9616 17.0815
1 9.45256 19.1547 18.6218
2 7.48287 18.8954 19.0767
1 7.47071 20.9128 19.4597
1 7.50317 19.034 21.0637
2 7.505 20.9354 21.4389
1 9.46188 20.9815 21.8476
1 7.48623 20.9369 23.4088
2 9.40005 20.946 23.8163
1 9.40901 19.0067 24.2118
1 9.40362 20.9123 25.7397
2 9.40776 19.0166 26.1895
1 7.46369 19.0444 26.6105
1 9.39144 18.9933 28.0896
2 7.61304 22.7242 -0.0738296
1 7.34999 24.8278 0.381407
1 7.49727 22.8858 1.91043
2 7.46873 24.787 2.32307
1 9.40891 24.7856 2.71607
1 7.49809 24.7971 4.2965
2 9.40732 24.7765 4.70362
1 9.40401 22.863 5.13306
1 9.42417 24.7718 6.68793
2 9.40371 22.8571 7.10642
1 7.48642 22.8566 7.5169
1 9.40754 22.862 9.08508
2 7.4811 22.8513 9.49377
1 7.47227 24.759 9.89998
1 7.4766 22.8432 11.4701
2 7.48544 24.7722 11.8782
1 9.39945 24.6979 12.3027
1 7.44076 24.8993 13.8255
2 9.40131 24.6591 14.2944
1 10.1467 22.8624 14.6967
1 9.40113 24.7942 16.2826
2 9.39546 22.855 16.5448
1 7.45884 22.8532 17.122
1 9.42383 22.8584 18.6087
2 7.5038 22.847 19.0528
1 7.43804 24.7764 19.4725
1 7.60416 22.8215 20.9932
2 7.36604 24.7677 21.4588
1 9.48247 24.7019 21.8508
1 7.51084 24.7835 23.4222
2 9.39929 24.7742 23.8251
1 9.4021 22.8575 24.236
1 9.39428 24.804 25.7645
2 9.41391 22.885 26.264
1 7.47015 22.8185 26.627
1 9.37632 23.7177 28.1931
2 11.3332 -0.199712 -0.0672771
1 11.3297 1.71672 0.331376
1 11.3147 -0.195214 1.92285
2 11.3276 1.71852 2.31649
1 13.2458 1.71259 2.72291
1 11.3237 1.71686 4.30038
2 13.2448 1.71301 4.70287
1 13.247 -0.209256 5.11299
1 13.2447 1.70972 6.67793
2 13.2477 -0.206026 7.1003
1 11.3302 -0.208006 7.5006
1 13.2456 -0.214154 9.08567
2 11.317 -0.198995 9.47718
1 11.3712 1.72103 9.90918
1 11.205 -0.232761 11.4208
2 11.4403 1.71486 11.9025
1 13.254 2.46908 12.3335
1 11.3029 1.71094 13.8867
2 13.2445 1.71871 14.1748
1 13.2761 -0.205053 14.7278
1 13.2353 1.71836 16.2662
2 13.2341 -0.196206 16.674
1 11.317 -0.204796 17.096
1 13.2273 -0.233576 18.6613
2 11.3077 -0.215298 19.0616
1 11.333 1.7408 19.4236
1 11.2226 -0.0974999 20.9887
2 11.3152 1.76061 21.4388
1 13.2451 1.73529 21.842
1 11.3285 1.71559 23.4267
2 13.2469 1.71527 23.8357
1 13.2387 -0.186388 24.2841
1 13.2458 1.7214 25.8329
2 13.2436 -0.209119 26.2313
1 11.3205 -0.211424 26.6427
1 13.2528 -0.184265 28.2064
2 11.3269 3.63773 -0.0756349
1 11.3207 5.55838 0.335373
1 11.3484 3.6308 1.90345
2 11.3349 5.55512 2.32024
1 13.249 5.55626 2.72414
1 11.3371 5.56652 4.31327
2 13.2504 5.56524 4.70988
1 13.2431 3.63678 5.11015
1 13.2465 5.55792 6.69241
2 13.2449 3.62711 7.09028
1 11.3291 3.67836 7.50817
1 13.2797 3.51929 9.04386
2 11.3145 3.7515 9.50741
1 12.0728 5.55716 9.94838
1 11.2035 3.64156 11.4648
2 11.3027 5.55876 11.7789
1 13.2693 5.55752 12.3266
1 11.3263 5.55782 13.8667
2 13.2394 5.5583 14.2795
1 13.2436 3.65452 14.7346
1 13.2424 5.55776 16.2774
2 13.2459 3.63203 16.6753
1 11.3194 3.64257 17.0717
1 13.2432 3.63523 18.6461
2 11.3227 3.65083 19.048
1 11.3278 5.56564 19.4642
1 11.3004 3.64153 21.0265
2 11.3148 5.55818 21.449
1 13.2055 5.4393 21.8887
1 11.3126 5.56637 23.4414
2 13.2439 5.54401 23.8417
1 13.2479 3.63048 24.2555
1 13.2492 5.55236 25.8248
2 13.2517 3.6361 26.2314
1 11.3244 3.63788 26.6331
1 13.2479 3.63837 28.208
2 11.3226 7.47779 -0.0789688
1 11.3194 9.3836 0.312882
1 11.3395 7.48053 1.89717
2 11.3254 9.52196 2.29273
1 13.286 9.32365 2.77126
1 11.299 9.30999 4.26663
2 13.2521 9.5046 4.73302
1 13.2483 7.48208 5.1329
1 13.247 9.38837 6.70561
2 13.2435 7.48694 7.09843
1 11.3203 7.43912 7.51361
1 13.2796 7.59384 9.04903
2 11.3089 7.36369 9.50595
1 11.3608 9.38777 9.91533
1 11.204 7.4742 11.4632
2 11.4438 9.40062 11.9053
1 13.2481 10.1601 12.3293
1 11.3061 9.40353 13.8852
2 13.2393 9.41456 14.1754
1 13.2464 7.46248 14.7312
1 13.2528 9.41317 16.2338
2 13.2493 7.49083 16.6625
1 11.3112 7.48187 17.0568
1 13.2269 7.48003 18.5932
2 11.324 7.47606 19.0529
1 11.3281 9.37452 19.4291
1 11.3099 7.48565 21.0383
2 11.3188 9.53348 21.4273
1 13.2453 9.40518 21.9414
1 11.3095 9.41622 23.4489
2 13.2562 9.39094 23.8584
1 13.2459 7.46897 24.2516
1 13.2372 9.3901 25.8298
2 13.2472 7.47372 26.2296
1 11.3349 7.46804 26.6197
1 13.2459 7.4715 28.2119
2 11.328 11.3337 0.0151758
1 11.3289 13.2831 0.309535
1 12.0871 11.324 1.8597
2 11.3241 13.1528 2.28459
1 13.285 13.3237 2.76872
1 11.2831 13.3205 4.2492
2 13.2457 13.1436 4.72657
1 14.0089 11.3165 5.14383
1 13.2475 13.2478 6.66996
2 13.2462 11.325 7.00056
1 11.3055 11.3106 7.54622
1 13.2465 11.3194 9.10891
2 11.303 11.293 9.47034
1 11.1922 13.2212 9.81571
1 11.2147 11.3543 11.4164
2 11.2837 13.2536 11.6718
1 13.0007 13.2544 12.4815
2 13.4284 13.2499 14.3444
1 13.1576 11.3935 14.7199
1 13.2402 13.2608 16.2571
2 13.2351 11.3204 16.6602
1 11.3224 11.3262 17.0735
1 13.2738 11.3223 18.5834
2 11.3199 11.3262 19.1312
1 11.3422 13.2569 19.434
1 12.0679 11.3312 20.9387
2 11.3234 13.121 21.5125
1 13.2982 13.3551 21.8669
1 11.325 14.0108 23.397
2 13.1277 13.2544 23.8123
1 13.3699 11.2889 24.2835
1 13.2041 13.244 25.7953
2 13.2563 11.3247 26.2253
1 11.3252 11.3192 26.6262
1 13.2679 11.3245 28.1603
2 11.3292 15.2642 -0.0613622
1 12.0919 17.0551 0.34065
1 11.3288 15.1361 1.91776
2 11.3245 17.1894 2.20015
1 13.2955 16.9487 2.80203
1 11.3226 17.126 4.29785
2 13.2459 17.0705 4.713
1 13.2438 15.1593 5.15081
1 13.248 17.1097 6.64368
2 13.2499 15.1641 7.20286
1 11.3054 15.1852 7.47577
1 13.2474 15.9336 9.03466
2 11.4433 15.1884 9.43793
1 11.2017 17.1269 9.93199
1 11.3753 15.156 11.4271
2 11.3189 17.0775 11.8857
1 13.2479 17.0875 12.2825
1 11.334 17.096 13.8732
2 13.2442 17.0665 14.2668
1 13.1697 15.1255 14.6702
1 13.2503 17.0764 16.2456
2 13.2416 15.1739 16.6663
1 11.3338 15.1757 17.053
1 13.2566 15.1688 18.6361
2 11.3322 15.1504 19.0325
1 11.3416 17.077 19.4095
1 11.3201 15.1821 20.9713
2 11.3237 17.0425 21.4432
1 13.2479 17.0747 21.8572
1 11.3369 17.0983 23.4478
2 13.2606 17.0956 23.84
1 13.3655 15.2051 24.2852
1 13.2483 17.1011 25.8286
2 13.2619 15.1589 26.2271
1 11.3241 15.21 26.628
1 13.2941 15.0336 28.1653
2 11.3364 18.8842 0.0550967
1 11.454 20.9061 0.348651
1 12.073 19.0215 1.93515
2 11.3357 20.8226 2.30612
1 13.303 21.0639 2.78269
1 11.3376 20.902 4.31203
2 13.2456 20.9477 4.72679
1 13.2497 19.0189 5.10816
1 13.2426 20.9337 6.70231
2 13.2526 19.0102 7.09849
1 11.3368 19.0063 7.49599
1 13.2472 19.0263 9.09054
2 11.3156 19.0169 9.48809
1 11.3147 20.9323 9.89775
1 11.3488 19.0147 11.4793
2 11.3293 20.9327 11.8748
1 13.2545 20.9519 12.2725
1 11.3623 20.8076 13.8254
2 13.2444 20.9193 14.2636
1 13.2813 18.9857 14.6686
1 13.13 20.8951 16.2139
2 13.2344 18.9974 16.6534
1 11.3268 18.9947 17.0777
1 13.2279 19.0445 18.6496
2 11.3292 19.0253 19.0603
1 11.3328 21.1279 19.6819
1 11.3196 18.9142 21.006
2 11.3392 20.6787 21.531
1 13.2191 20.9373 21.8505
1 11.3315 20.9387 23.4229
2 13.2466 20.9458 23.8393
1 13.2406 19.0174 24.2278
1 13.2566 20.9324 25.8103
2 13.2488 19.0227 26.2034
1 11.3362 18.9899 26.6076
1 13.303 19.1087 28.122
2 11.2547 22.8646 -0.108827
1 11.4569 24.8108 0.373457
1 11.2871 22.8463 1.88693
2 11.3369 24.7722 2.32259
1 13.2421 24.7988 2.74372
1 11.3238 24.7732 4.30251
2 13.2476 24.7781 4.71397
1 13.2399 22.8656 5.13267
1 13.2489 24.7803 6.6968
2 13.2468 22.8572 7.10473
1 11.326 22.8512 7.50584
1 13.2459 22.8483 9.08227
2 11.3274 22.8511 9.48829
1 11.33 24.7693 9.87819
1 11.3472 22.8614 11.4667
2 11.3156 24.7843 11.8642
1 13.2542 24.7541 12.262
1 11.3569 24.9014 13.8106
2 13.2397 24.7901 14.2633
1 13.3092 22.8553 14.6683
1 13.1216 24.803 16.226
2 13.3741 22.8493 16.6611
1 11.3596 22.8506 17.033
1 13.2252 22.8546 18.6542
2 11.3254 22.8652 18.8854
1 11.327 24.6223 19.645
2 11.4368 25.0394 21.54
1 13.2776 25.4498 21.9133
1 11.2983 24.8046 23.4678
2 13.2321 24.7591 23.7412
1 13.26 22.8465 24.2721
1 13.2612 24.7833 25.8164
2 13.2644 22.8623 26.2178
1 11.3701 22.8989 26.5675
1 13.2395 22.8606 28.1862
2 15.1715 -0.20011 -0.0757483
1 15.1628 1.71566 0.33337
1 15.1593 -0.204684 1.90754
2 15.1627 1.71497 2.31431
1 17.0758 1.70489 2.71441
1 15.1635 1.71796 4.2991
2 17.0801 1.72072 4.69971
1 17.0735 -0.212726 5.10097
1 17.0925 1.70667 6.67224
2 17.0909 -0.205595 7.0928
1 15.1678 -0.202974 7.50411
1 17.0841 -0.206898 9.07978
2 15.176 -0.213374 9.48496
1 15.1252 1.69588 9.91395
1 15.284 -0.248704 11.4387
2 15.0482 1.71264 11.9026
1 17.0615 1.7172 12.2813
1 15.1807 1.72196 13.8864
2 17.077 1.7205 14.267
1 17.0711 -0.186577 14.6499
1 17.0962 1.72172 16.2558
2 17.0876 -0.185067 16.6535
1 15.1572 -0.171809 17.08
1 17.0935 -0.210668 18.6326
2 15.1744 -0.203823 19.0534
1 15.1538 1.72556 19.4505
1 15.279 -0.155834 21.013
2 15.1749 1.73429 21.4405
1 17.0972 1.74025 21.8565
1 15.1612 1.71477 23.4149
2 17.0766 1.71325 23.8314
1 17.0964 -0.218623 24.2311
1 16.9706 1.6766 25.7844
2 17.0815 -0.215463 26.2235
1 15.1633 -0.226276 26.6399
1 17.0933 -0.19741 28.2068
2 15.1658 3.63622 -0.0732971
1 15.1613 5.55603 0.3295
1 15.1632 3.63695 1.913
2 15.1688 5.55605 2.31657
1 17.0878 5.5563 2.73057
1 15.1663 5.56177 4.30159
2 17.0888 5.55904 4.71117
1 17.0695 3.64462 5.114
1 17.0887 5.55947 6.6948
2 17.0891 3.62553 7.08362
1 15.1676 3.64898 7.47649
1 17.0629 3.50992 9.03056
2 15.1788 3.61568 9.47374
1 15.1515 5.55925 9.85011
1 15.2816 3.67293 11.4236
2 15.1808 5.55775 11.8707
1 17.0704 5.55258 12.3405
1 15.1617 5.5634 13.8852
2 17.0821 5.56862 14.2819
1 17.0741 3.6398 14.6801
1 17.0951 5.5579 16.253
2 17.0924 3.63812 16.6668
1 15.1716 3.63291 17.0722
1 17.0837 3.62961 18.66
2 15.1644 3.63768 19.0529
1 15.1706 5.53758 19.431
1 15.1696 3.64702 21.0292
2 15.1693 5.67142 21.4154
1 17.1239 5.43741 21.8886
1 15.1621 5.59747 23.4075
2 17.0774 5.5471 23.8361
1 17.1272 3.6311 24.2645
1 16.9697 5.59381 25.7834
2 17.2086 3.63505 26.2541
1 15.1746 3.63696 26.642
1 17.0707 3.63625 28.2344
2 15.1687 7.47886 -0.0792924
1 15.1647 9.40156 0.335801
1 15.1891 7.46604 1.89155
2 15.1801 9.37834 2.31511
1 17.1086 9.41291 2.70957
1 15.2222 9.2863 4.27384
2 17.1066 9.39674 4.70136
1 17.1183 7.47309 5.11533
1 17.0877 9.40909 6.67595
2 17.0945 7.49155 7.08487
1 15.1712 7.46167 7.47968
1 17.0631 7.60733 9.02967
2 15.1794 7.50344 9.47651
1 15.133 9.42292 9.93063
1 15.2883 7.44425 11.429
2 15.0528 9.40692 11.9132
1 17.0763 9.41237 12.2983
1 15.1853 9.43872 13.9001
2 17.0958 9.42072 14.2713
1 17.0684 7.4947 14.6909
1 17.093 9.41629 16.248
2 17.0856 7.48641 16.6543
1 15.1708 7.48421 17.072
1 17.1113 7.48231 18.5944
2 15.1724 7.47842 19.1442
1 15.1638 9.42172 19.4383
1 15.9349 7.48142 20.9942
2 15.1731 9.26951 21.4245
1 17.1274 9.52068 21.8868
1 15.1918 9.34598 23.432
2 17.0997 9.41897 23.8413
1 17.1065 7.4899 24.2273
1 17.0883 9.40501 25.8207
2 17.0817 7.48788 26.2202
1 15.161 7.50129 26.6384
1 17.0909 7.47745 28.2053
2 15.1706 11.3194 -0.0666684
1 15.1843 13.2307 0.336471
1 15.1864 11.3187 1.92461
2 15.173 13.2641 2.30758
1 17.0877 13.2374 2.68222
1 15.2103 13.3593 4.26757
2 17.0641 13.2579 4.70398
1 17.1028 11.3268 5.10736
1 17.1095 13.2505 6.69021
2 17.0899 11.3264 7.09464
1 15.1871 11.331 7.56022
1 17.1138 11.3044 9.07801
2 15.1896 11.326 9.50154
1 15.2899 13.2293 9.95987
1 15.2821 11.3806 11.4713
2 15.2137 13.255 11.8946
1 17.33 13.2617 12.4946
1 15.1709 13.2422 13.7971
2 16.9145 13.2403 14.354
1 17.1693 11.3663 14.6762
1 17.1009 13.2441 16.2576
2 17.1042 11.3223 16.6702
1 15.1826 11.3448 17.0325
1 17.0875 11.3273 18.6476
2 15.168 11.3272 19.0479
1 15.1696 13.2425 19.4627
1 15.1852 11.3174 21.0346
2 15.1782 13.2486 21.4472
1 17.0914 13.2489 21.854
1 15.1776 13.2359 23.4312
2 17.0891 13.2458 23.839
1 17.0965 11.3318 24.2554
1 17.094 13.2495 25.8233