1696
Atoms. Timestep: 1615
2 -0.44667 -0.427918 28.5813
1 -0.437288 1.55901 0.142023
1 -0.416051 -0.293756 1.69779
2 -0.337152 1.59709 2.11928
1 1.59624 1.51947 2.23082
1 -0.363208 1.51988 4.00291
1 1.51325 26.7467 5.07865
1 1.49175 1.49831 7.01903
2 1.50102 26.9409 6.99059
1 26.9404 26.9401 7.07135
1 1.50166 26.845 8.86303
1 -0.380438 1.66731 9.95274
1 -0.42422 26.9423 11.8198
2 -0.432806 1.49004 11.8849
1 1.57614 1.51161 12.2715
1 -0.2072 1.465 13.8193
2 1.62996 1.70841 14.2265
1 1.57543 26.4519 15.0204
1 1.55785 1.56143 16.1507
2 1.54083 -0.212517 16.7166
1 -0.39456 26.9241 16.76
1 1.68158 26.921 18.5752
1 -0.411351 1.65403 19.5834
1 26.9613 26.952 21.4533
2 -0.455734 1.49942 21.5262
1 1.50363 1.46888 21.9032
1 -0.452755 1.50926 23.498
2 1.50691 1.49017 23.8766
1 1.50849 26.9581 24.2851
1 1.51024 1.49387 25.8479
2 1.50773 -0.4615 26.2552
1 -0.445969 -0.436406 26.63
1 1.51438 -0.452163 28.2263
2 -0.459097 3.49561 28.6336
1 -0.469853 5.44044 0.25543
1 -0.430625 3.51044 1.80878
2 26.9588 5.43591 2.25108
1 1.49306 5.39355 2.67687
1 26.9534 5.43307 4.23583
2 1.48432 5.47824 4.65511
1 1.47883 3.61887 5.17845
1 1.50967 5.43783 6.69325
2 1.49966 3.47394 7.11694
1 -0.462817 3.48068 7.50909
1 1.50879 3.53333 9.07998
2 -0.452255 3.53674 9.48433
1 -0.449068 5.41612 9.9091
1 -0.432243 3.47232 11.5158
2 -0.390352 5.40736 11.8863
1 1.47335 5.44444 12.2566
1 -0.408595 5.4533 13.9111
2 1.45751 5.47944 14.2964
1 1.5453 3.55738 14.6557
1 1.57051 5.4484 16.2755
2 1.55754 3.5003 16.641
1 -0.361695 3.44856 17.0436
1 1.56461 3.43441 18.6359
2 -0.331009 3.52219 19.0609
1 -0.382933 5.4034 19.4505
1 -0.446046 3.46698 21.1054
2 26.9057 5.34381 21.481
1 1.40813 5.38276 21.9578
1 -0.347155 5.40951 23.4385
2 1.56705 5.40905 23.91
1 1.51736 3.44926 24.2897
1 1.45344 5.40532 25.8778
2 1.49096 3.4458 26.2625
1 26.9557 3.45603 26.6683
1 1.50189 3.4572 28.2285
2 26.953 7.39311 28.6714
1 26.956 9.343 0.284596
1 26.9394 7.37085 1.84345
2 26.8581 9.32554 2.26177
1 1.30151 9.27354 2.747
1 26.8859 9.334 4.27971
2 1.45948 9.33066 4.6788
1 1.48339 7.35489 5.05446
1 1.43388 9.16737 6.60911
2 1.50996 7.30912 7.09695
1 -0.439024 7.33456 7.51435
1 1.51681 7.38257 9.07503
2 -0.439396 7.30243 9.49901
1 -0.439448 9.16831 9.99548
1 -0.454343 7.34144 11.5203
2 -0.450404 9.32849 11.9272
1 1.51485 9.33901 12.2979
1 -0.437739 9.31169 13.8881
2 1.51709 9.34749 14.2762
1 1.52988 7.40755 14.7022
1 1.54011 9.35832 16.2556
2 1.62542 7.40323 16.6782
1 -0.245444 7.33436 17.1555
1 1.58828 7.39901 18.6938
2 -0.420991 7.37146 19.0841
1 -0.394837 9.33863 19.1225
1 -0.40816 7.21145 21.0197
1 1.70111 9.38081 22.0043
1 -0.455061 9.37236 23.8434
2 1.531 9.34365 23.9308
1 1.50755 7.37876 24.2982
1 1.52407 9.33913 25.8918
2 1.46959 7.36784 26.2755
1 26.9524 7.40208 26.6932
1 1.47358 7.36469 28.2615
2 26.9628 11.2892 28.6712
1 -0.455339 13.2319 0.268181
1 26.9444 11.2896 1.85024
2 26.9598 13.2405 2.25124
1 1.49294 13.3001 2.64246
1 26.9522 13.2684 4.22651
2 1.48544 13.2837 4.60646
1 1.47577 11.3013 4.70469
1 1.47206 13.4471 6.53066
1 -0.464819 11.307 7.15423
1 1.75607 11.2803 9.38423
1 -0.371568 13.4479 9.9513
1 -0.432952 11.3108 11.8396
2 -0.429972 13.2866 11.8763
1 1.57344 13.2568 12.2449
1 -0.255892 13.3325 13.7968
2 1.61366 13.2649 14.2586
1 1.54079 11.3041 14.6706
1 1.5196 13.2703 16.229
2 1.53513 11.3177 16.644
1 -0.391946 11.3486 17.0044
1 1.5353 11.3337 18.6349
2 -0.354577 11.3288 19.0122
1 -0.451346 13.3311 19.4407
1 -0.434967 11.4934 20.9454
2 -0.455265 13.3582 21.4706
1 1.49611 13.2836 21.8892
1 -0.451879 13.2645 23.4564
2 1.49634 13.2524 23.8717
1 1.50935 11.2986 24.2989
1 1.48072 13.2559 25.8493
2 1.49211 11.3048 26.2736
1 -0.458779 11.3055 26.695
1 1.4922 11.306 28.2513
2 -0.454823 15.1687 28.651
1 -0.434286 17.0885 0.234799
1 26.9684 15.1714 1.83719
2 -0.444499 17.0614 2.25375
1 1.50487 17.1616 2.66748
1 -0.453927 17.1953 4.2323
2 1.50102 17.2068 4.6416
1 1.48965 15.2852 5.01047
1 1.4865 17.2073 6.63201
2 1.49647 15.3153 7.03665
1 -0.42157 15.2867 7.46941
1 1.50197 15.2504 9.04361
2 -0.411892 15.3259 9.48333
1 -0.442514 17.2159 9.90608
1 -0.435674 15.2781 11.5078
2 -0.452874 17.1997 11.8933
1 1.50353 17.1713 12.2805
1 -0.455038 17.1963 13.8629
2 1.5045 17.1802 14.2523
1 1.52864 15.2236 14.6567
1 1.47706 17.1483 16.2298
2 1.46661 15.2103 16.6408
1 26.9534 15.2364 17.0703
1 1.46018 15.2372 18.6389
2 26.9507 15.2523 19.0572
1 -0.4559 17.1808 19.4858
1 -0.45682 15.2486 21.0563
2 -0.451398 17.1719 21.4814
1 1.49735 17.1662 21.891
1 -0.443496 17.1597 23.4671
2 1.49923 17.1612 23.872
1 1.49313 15.2053 24.2794
1 1.50935 17.1542 25.846
2 1.48159 15.2058 26.258
1 -0.45562 15.1918 26.6699
1 1.4864 15.2022 28.2423
2 -0.413066 19.0666 28.6211
1 -0.412123 21.0386 -0.15074
1 -0.431241 18.9327 1.74907
1 1.64518 21.0921 2.80274
1 26.9589 21.0783 4.64906
2 1.51966 21.0605 4.73868
1 1.49329 19.1331 5.07743
1 1.51888 21.0525 6.71239
2 1.48916 19.1231 7.06787
1 26.956 19.1335 7.49689
1 1.49539 19.0976 9.0396
2 -0.456362 19.1218 9.47854
1 -0.431641 21.027 9.91866
1 -0.442809 19.1287 11.495
2 26.898 21.0371 11.9061
1 1.53752 21.0362 12.4813
1 26.8085 21.0444 13.8592
2 1.16432 21.0729 14.3627
1 1.51467 19.1275 14.6606
1 1.47978 20.8957 16.2134
2 1.49572 19.0208 16.6952
1 -0.454047 19.0984 17.0906
1 1.49517 19.0945 18.6722
2 -0.451195 19.1047 19.0814
1 -0.416132 21.025 19.5176
1 -0.445718 19.0981 21.0819
2 -0.425323 21.0315 21.511
1 1.51867 21.046 21.9093
1 -0.426438 21.0488 23.4924
2 1.51518 21.0712 23.8835
1 1.51622 19.1123 24.2869
1 1.51866 21.0683 25.8506
2 1.5243 19.1085 26.2627
1 -0.403804 19.0587 26.6461
1 1.52183 19.0935 28.2532
2 -0.425105 23.0321 28.5334
1 -0.446416 25.0276 -0.165962
1 -0.446004 23.0359 1.60296
1 1.70481 24.9501 2.78653
1 -0.458201 24.8814 4.62371
2 1.54038 24.8649 4.71468
1 1.52025 22.9817 5.10988
1 1.52112 24.9302 6.70636
2 1.48904 22.9972 7.08498
1 26.9522 22.9774 7.50707
1 1.49494 22.9766 9.04897
2 -0.462332 22.906 9.4777
1 26.9393 24.7711 9.95849
1 -0.450348 22.9411 11.5078
2 26.9544 24.9559 11.8688
1 1.50329 24.9793 12.1531
1 -0.436232 24.9066 13.8274
2 1.51429 24.8755 14.0304
1 1.51068 23.0007 14.4457
1 -0.260629 23.1608 17.3161
1 1.58343 23.0104 19.1375
2 -0.333917 22.9382 19.1994
1 -0.424548 24.8203 19.646
1 -0.437666 22.9649 21.1943
2 -0.447572 24.9659 21.5568
1 1.50823 24.9846 21.9197
1 -0.444347 24.9613 23.51
2 1.50914 24.9916 23.8863
1 1.52767 23.0316 24.285
1 1.51614 25.0042 25.8484
2 1.50992 23.0373 26.2523
1 -0.420647 23.036 26.5807
1 1.50515 23.0413 28.2436
2 3.46458 -0.473797 28.6518
1 3.51855 1.47691 0.214532
1 3.51294 26.9536 1.8314
2 3.54811 1.47637 2.19214
1 5.50147 1.49917 2.62709
1 3.66875 1.48564 4.13605
2 5.53394 1.50345 4.65629
1 5.50064 -0.452299 5.03802
1 5.44352 1.49655 6.63416
2 5.45552 26.9639 6.99423
1 3.48768 26.9655 7.04986
1 5.58529 -0.45568 8.92191
1 3.46312 1.68474 9.97067
1 3.45977 26.9414 11.8091
2 3.48926 1.50915 11.8952
1 5.41572 1.48003 12.28
1 3.48605 1.4845 13.8856
2 5.42389 1.38531 14.2744
1 5.40163 26.9075 14.6771
1 5.42646 1.40988 16.2942
2 5.42581 26.9187 16.6723
1 3.48669 26.9029 17.0675
1 5.45041 26.9124 18.6575
2 3.56044 26.9005 19.0842
1 3.47763 1.39963 19.4401
1 3.47027 26.9164 21.0723
2 3.45825 1.38179 21.4739
1 5.41291 1.46751 21.886
1 3.46436 1.47608 23.4557
2 5.41824 1.48837 23.8669
1 5.4161 -0.462413 24.2837
1 5.40585 1.48858 25.8468
2 5.40458 -0.460983 26.2605
1 3.45858 -0.46977 26.6712
1 5.4137 -0.464497 28.2363
2 3.46077 3.42247 28.6381
1 3.42804 5.34072 0.235176
1 3.49663 3.41553 1.82288
2 3.43861 5.30199 2.26436
1 5.3705 5.37773 2.69954
1 3.43589 5.39529 4.25853
2 5.376 5.40967 4.69034
1 5.41229 3.45253 5.08981
1 5.40039 5.41161 6.66411
2 5.41561 3.44885 7.06518
1 3.46104 3.46396 7.48871
1 5.41753 3.46953 9.04212
2 3.45908 3.56108 9.46974
1 3.44087 5.46243 9.85636
1 3.45252 3.5198 11.4911
2 3.35299 5.45451 11.8295
1 5.23359 5.44806 11.965
1 3.30089 5.47566 13.7854
1 5.42733 3.25826 14.7878
1 5.42725 5.41455 16.625
2 5.42556 3.41498 16.713
1 3.49362 3.4132 17.051
1 5.42198 3.39592 18.6866
2 3.48766 3.41002 19.0275
1 3.49332 5.40758 19.133
1 3.4635 3.24176 20.9531
1 5.61448 5.40087 21.993
1 3.5046 5.41204 23.8382
2 5.4775 5.40302 23.9291
1 5.44094 3.44299 24.2933
1 5.44479 5.39521 25.8944
2 5.41735 3.43771 26.2688
1 3.45745 3.43841 26.6663
1 5.41816 3.44116 28.2391
2 3.40677 7.34028 28.6368
1 3.42321 9.33613 -0.0858132
1 3.42755 7.17261 1.76011
1 5.55403 9.34891 2.78527
1 3.44468 9.33566 4.63514
2 5.41819 9.3281 4.72175
1 5.38628 7.37042 5.10087
1 5.4835 9.33336 6.68381
2 5.4272 7.3747 7.07337
1 3.46816 7.39063 7.49234
1 5.43182 7.37757 9.04591
2 3.47403 7.40167 9.47061
1 3.52695 9.3374 9.90014
1 3.43895 7.40305 11.457
2 3.4746 9.33974 11.8849
1 5.42641 9.33065 12.3056
1 3.46938 9.35641 13.8628
2 5.41986 9.43425 14.2831
1 5.43292 7.5711 14.7964
1 5.42714 9.40889 16.3071
2 5.44514 7.41118 16.7247
1 3.51759 7.43487 17.0768
1 5.4392 7.40727 18.7003
2 3.50354 7.40866 19.0523
1 3.48633 9.41697 19.4602
1 3.51322 7.57505 20.9744
2 3.56748 9.44692 21.4837
1 5.45369 9.33133 21.9124
1 3.52887 9.34531 23.5177
2 5.4506 9.3259 23.9011
1 5.44664 7.36172 24.3133
1 5.39042 9.33041 25.8728
2 5.30898 7.35961 26.2809
1 3.40961 7.32145 26.661
1 5.32732 7.35641 28.3004
2 3.4398 11.3234 28.6211
1 3.43501 13.3132 0.23507
1 3.44414 11.4838 1.747
2 3.44988 13.3552 2.25549
1 5.40161 13.2551 2.67936
1 3.446 13.2727 4.23577
2 5.40422 13.2456 4.65454
1 5.43003 11.289 5.08962
1 5.44635 13.2596 6.62913
2 5.55981 11.2973 7.05966
1 3.71038 11.2968 7.57751
1 5.54422 11.2985 9.09518
2 3.63985 11.2927 9.52967
1 3.511 13.2557 9.88946
1 3.53984 11.2901 11.4939
2 3.50154 13.2544 11.8614
1 5.43995 13.2407 12.2796
1 3.49843 13.2571 13.8436
2 5.4224 13.2589 14.2697
1 5.41385 11.3238 14.6948
1 5.38548 13.2673 16.2557
2 5.40216 11.3309 16.6876
1 3.46744 11.3356 17.072
1 5.39956 11.3132 18.6768
2 3.46291 11.3379 19.0621
1 3.427 13.281 19.4827
1 3.47765 11.3423 21.0586
2 3.44656 13.278 21.4729
1 5.38985 13.2488 21.8965
1 3.44233 13.248 23.459
2 5.384 13.2413 23.8784
1 5.42043 11.2848 24.2985
1 5.36206 13.2469 25.8475
2 5.39258 11.2972 26.2696
1 3.44226 11.3355 26.6566
1 5.38823 11.2948 28.2476
2 3.41442 15.2364 28.6514
1 3.44326 17.1798 0.273309
1 3.45146 15.2472 1.84082
2 3.45644 17.1802 2.26066
1 5.40543 17.1537 2.67191
1 3.45946 17.2049 4.23915
2 5.42057 17.1698 4.65022
1 5.38144 15.2118 5.02422
1 5.39959 17.1535 6.63061
2 5.40103 15.2113 6.99311
1 3.41077 15.2205 7.41729
1 5.25492 15.1953 8.9253
2 3.39087 15.1968 9.4539
1 3.44865 17.1343 9.85255
1 3.45992 15.214 11.4441
2 3.43984 17.1688 11.8427
1 5.38087 17.1709 12.2653
1 3.44973 17.2011 13.8376
2 5.36985 17.1802 14.2721
1 5.36108 15.2108 14.6484
1 5.36493 17.1413 16.2584
2 5.36045 15.2038 16.6196
1 3.38216 15.213 17.038
1 5.21109 15.2175 18.5533
2 3.34607 15.2242 19.0673
1 3.42128 17.1671 19.4965
1 3.43496 15.2184 21.0565
2 3.44067 17.1672 21.4769
1 5.38 17.1756 21.898
1 3.43884 17.1637 23.4601
2 5.37548 17.1728 23.8781
1 5.36704 15.206 24.2763
1 5.35132 17.1669 25.8453
2 5.33222 15.2074 26.2478
1 3.41517 15.2198 26.6587
1 5.33452 15.2033 28.2472
2 3.45603 19.1238 28.6692
1 3.43748 21.0763 0.291592
1 3.46523 19.1265 1.85255
2 3.46733 21.079 2.26733
1 5.29149 21.0666 2.79305
1 3.47995 21.0615 4.35367
2 5.43998 21.059 4.72657
1 5.44311 19.1071 5.09319
1 5.38912 21.0661 6.68449
2 5.40707 19.1033 7.0699
1 3.45384 19.0757 7.45177
1 5.39187 19.0921 9.04998
2 3.44402 19.0631 9.40111
1 3.42972 21.0263 9.7627
1 3.39571 19.1074 11.3587
2 3.21516 21.0303 11.6381
1 4.48782 21.0502 12.9916
2 5.55255 21.071 14.5087
1 5.39679 19.1446 14.7744
1 5.35375 21.0881 16.3764
2 5.35742 19.0845 16.7342
1 3.43225 19.0823 17.1059
1 5.36191 19.1263 18.7064
2 3.42955 19.121 19.0968
1 3.46863 21.0676 19.5228
1 3.44567 19.1155 21.0751
2 3.4614 21.0678 21.4991
1 5.39907 21.0844 21.9115
1 3.45761 21.0725 23.4794
2 5.40204 21.0856 23.8851
1 5.3854 19.1313 24.2923
1 5.38986 21.0865 25.8582
2 5.3914 19.1187 26.2639
1 3.45412 19.1261 26.6815
1 5.39768 19.1194 28.2466
2 3.43082 23.0407 -0.1214
1 3.45185 25.0013 0.286621
1 3.48548 23.0346 1.85564
2 3.56723 24.997 2.26752
1 5.454 25.0408 2.68403
1 3.54732 24.9552 4.29645
2 5.46488 25.0002 4.67087
1 5.46418 23.023 5.07607
1 5.43553 25.0056 6.63273
2 5.40109 23.04 7.03559
1 3.45117 23.0308 7.43949
1 5.38441 23.0459 9.00875
2 3.44506 22.9506 9.39061
1 3.47657 24.8253 9.91354
1 3.40233 22.9434 11.3687
2 3.46145 24.9498 11.8339
1 5.38721 24.9739 12.2418
1 3.45292 24.871 13.8025
2 5.38086 24.9563 14.2604
1 5.41968 23.0048 14.7669
1 5.41901 24.9905 16.2624
2 5.38754 23.0665 16.7364
1 3.54427 23.1472 17.2123
1 5.40906 23.0501 18.7604
2 3.5064 23.026 19.1729
1 3.49185 24.9792 19.5244
1 3.50525 23.0272 21.1416
2 3.46249 24.9786 21.5
1 5.41281 25.0152 21.9049
1 3.46109 25.0029 23.4743
2 5.41061 25.0055 23.8768
1 5.39261 23.0469 24.2938
1 5.37626 25.0129 25.8485
2 5.30591 23.0525 26.2661
1 3.42539 23.0402 26.6825
1 5.34704 23.0506 28.2923
2 7.36741 -0.434372 28.6424
1 7.38482 1.51019 0.253187
1 7.40329 -0.417155 1.82765
2 7.41661 1.51455 2.24135
1 9.34994 1.49577 2.66509
1 7.42323 1.52557 4.2389
2 9.34925 1.51721 4.66059
1 9.34779 -0.423223 5.0703
1 9.35605 1.51632 6.64462
2 9.3679 -0.411886 7.05276
1 7.43523 -0.445391 7.41089
1 9.36402 -0.384761 9.02849
2 7.46471 -0.447699 9.41626
1 7.38624 1.46653 9.81173
1 7.33792 -0.44429 11.4104
2 7.36779 1.43004 11.8559
1 9.32119 1.53804 12.2763
1 7.35984 1.49682 13.8387
2 9.32319 1.57211 14.2543
1 9.27687 -0.318052 14.6496
1 9.30786 1.56473 16.2665
2 9.32439 -0.313184 16.6889
1 7.37984 -0.442616 17.0921
1 9.32629 -0.438808 18.6659
2 7.38329 -0.467213 19.0766
1 7.36945 1.48273 19.4897
1 7.36291 -0.457645 21.0596
2 7.3696 1.48724 21.4664
1 9.32928 1.49139 21.8652
1 7.36525 1.49259 23.4388
2 9.32943 1.49001 23.8316
1 9.32418 -0.417968 24.2158
1 9.31776 1.48427 25.8298
2 9.32082 -0.387013 26.2548
1 7.35999 -0.439072 26.6655
1 9.31978 -0.456525 28.2285
2 7.36668 3.45553 28.6612
1 7.32283 5.4049 0.295967
1 7.37791 3.45693 1.84186
2 7.26165 5.40256 2.28226
1 9.13057 5.41432 2.7992
1 7.29767 5.40822 4.31131
2 9.301 5.40584 4.72737
1 9.32845 3.46387 5.08784
1 9.31947 5.40551 6.6969
2 9.33256 3.44887 7.06995
1 7.37251 3.41549 7.44527
1 9.32798 3.45827 9.04505
2 7.37657 3.43646 9.40908
1 7.38459 5.41048 9.49888
1 7.35835 3.28511 11.3422
1 9.54955 5.40854 12.3673
1 7.59334 5.43179 14.1687
2 9.47823 5.42859 14.3254
1 9.34427 3.48363 14.6824
1 9.35452 5.42752 16.2984
2 9.30032 3.48717 16.6724
1 7.3574 3.45347 17.0851
1 9.28519 3.45523 18.665
2 7.35765 3.43837 19.0776
1 7.37479 5.4014 19.4952
1 7.38333 3.43714 21.0561
2 7.47888 5.3893 21.4726
1 9.3748 5.36568 21.8565
1 7.44879 5.39119 23.4981
2 9.36972 5.37896 23.8353
1 9.34497 3.39552 24.2256
1 9.34553 5.21641 25.7649
2 9.32764 3.35628 26.2603
1 7.3727 3.42866 26.6816
1 9.32612 3.42667 28.2392
2 7.29711 7.36434 -0.0727882
1 7.33169 9.32693 0.292313
1 7.29162 7.36232 1.89096
2 7.41688 9.32536 2.26727
1 9.29882 9.31146 2.66135
1 7.38294 9.31375 4.29852
2 9.26466 9.29723 4.68737
1 9.32069 7.34833 5.09832
1 9.37517 9.29729 6.6672
2 9.35321 7.35885 7.07433
1 7.38508 7.39464 7.45104
1 9.34607 7.35614 9.03879
2 7.38954 7.37874 9.42003
1 7.41183 9.32908 9.84975
1 7.37536 7.51904 11.3647
2 7.37895 9.37251 11.8927
1 9.33064 9.28695 12.304
1 7.37775 9.34072 13.871
2 9.33597 9.31 14.2841
1 9.36833 7.37606 14.7074
1 9.3013 9.31628 16.277
2 9.33302 7.37315 16.6896
1 7.38028 7.37727 17.1019
1 9.32923 7.36606 18.6695
2 7.38372 7.35434 19.0888
1 7.35634 9.29112 19.5084
1 7.41118 7.34521 21.0732
2 7.38702 9.29722 21.4933
1 9.32725 9.33017 21.8632
1 7.39013 9.31697 23.4789
2 9.33632 9.34821 23.8303
1 9.35515 7.36412 23.9155
1 9.30327 9.51348 25.7603
1 7.1716 7.37934 26.797
1 9.26516 7.35531 28.6262
2 7.34252 11.2814 28.6686
1 7.30991 13.2242 0.279923
1 7.36566 11.2801 1.84892
2 7.35988 13.2181 2.26712
1 9.31991 13.1939 2.68974
1 7.35632 13.1949 4.24387
2 9.32519 13.1421 4.66554
1 9.32622 11.2376 5.09074
1 9.38392 13.1655 6.67732
2 9.3946 11.2305 7.07591
1 7.44817 11.2812 7.47234
1 9.3789 11.2116 9.05103
2 7.45123 11.2077 9.46804
1 7.47225 13.0772 9.97496
1 7.38628 11.2441 11.4966
2 7.38527 13.1922 11.9212
1 9.32459 13.1361 12.3175
1 7.3676 13.1966 13.8978
2 9.33044 13.1726 14.2848
1 9.31233 11.2419 14.7041
1 9.30814 13.1954 16.2685
2 9.22 11.2598 16.6886
1 7.33138 11.2905 17.1084
1 9.25134 11.2535 18.7153
2 7.33204 11.191 19.1024
1 7.33576 13.0683 19.6017
1 7.34175 11.2257 21.1136
2 7.32741 13.2188 21.5283
1 9.26033 13.2428 21.8906
1 7.32079 13.211 23.4955
2 9.26796 13.2555 23.8663
1 9.31529 11.3325 24.241
1 9.25173 13.2621 25.8446
2 9.3011 11.3772 26.2687
1 7.34202 11.3002 26.6894
1 9.2991 11.3043 28.2462
2 7.21848 15.1653 -0.14037
1 7.30289 17.0933 0.22855
1 7.33993 15.1575 1.8512
2 7.33708 17.0651 2.22148
1 9.29224 17.1219 2.61558
1 7.39025 17.1582 4.19558
2 9.29564 16.841 4.5057
1 9.31287 15.0583 5.01507
1 9.27413 17.491 6.26764
2 9.32189 15.0843 6.93099
1 7.38736 15.2299 7.03278
1 9.37754 15.3438 8.77272
1 7.38854 17.2902 9.93691
1 7.37444 15.1586 11.8191
2 7.33598 17.1028 11.8913
1 9.27178 17.1022 12.309
1 7.29459 17.1499 13.8784
2 9.19068 17.0211 14.3008
1 9.34665 15.1171 14.6534
1 9.25625 17.0248 16.313
2 9.33631 15.1172 16.6388
1 7.33956 15.1564 16.713
1 9.49691 15.16 18.5663
1 7.29073 17.3334 19.6101
1 7.32333 15.2046 21.4342
2 7.3165 17.1913 21.5335
1 9.25027 17.156 21.8899
1 7.3123 17.1987 23.4989
2 9.2612 17.1492 23.8659
1 9.21115 15.2017 24.2335
1 9.25671 17.1366 25.8445
2 9.13777 15.1996 26.2056
1 7.23293 15.1893 26.6301
1 9.071 15.1716 28.158
2 7.34476 19.0986 28.6107
1 7.3344 21.0868 -0.0979265
1 7.36599 18.9376 1.73286
1 9.42453 21.1252 2.75442
1 7.41926 21.0068 4.59886
2 9.30979 21.4121 4.61082
1 9.32584 20.8431 6.40946
2 9.28243 19.129 7.17989
1 7.35298 19.0918 7.49984
1 9.34222 19.1779 9.05162
2 7.3417 19.185 9.47051
1 7.29689 21.1088 9.53544
1 7.27877 19.0346 11.434
1 9.68418 20.9575 12.0425
1 7.30247 21.0895 14.034
1 9.22947 18.8754 14.8081
1 9.25062 20.839 16.5974
2 9.17226 18.9437 16.7512
1 7.27744 19.0865 17.1226
1 9.19318 19.0871 18.7621
2 7.28497 19.2185 19.1225
1 7.33475 21.1232 19.5255
1 7.31361 19.1842 21.1271
2 7.34301 21.1136 21.5038
1 9.29606 21.0849 21.8693
1 7.3515 21.0887 23.4776
2 9.30001 21.0626 23.831
1 9.30278 19.0728 24.2389
1 9.28865 20.9005 25.7568
2 9.29567 19.028 26.2576
1 7.3385 19.0703 26.6463
1 9.29104 19.1193 28.2381
2 7.32213 23.0712 -0.125382
1 7.35167 25.069 0.244207
1 7.3092 23.2458 1.8039
2 7.38378 25.1239 2.26535
1 9.32157 25.0448 2.68507
1 7.3859 25.0602 4.2538
2 9.32034 25.0918 4.67643
1 9.26992 23.1922 5.09654
1 9.35432 25.084 6.68684
2 9.2988 23.1672 7.02554
1 7.34313 23.0724 7.3884
1 9.16354 22.9837 8.92621
2 7.28235 23.0773 9.39294
1 7.38104 25.0511 9.79308
1 7.30788 23.2141 11.3361
2 7.32026 25.0921 11.8228
1 9.24237 25.1406 12.2106
1 7.30308 25.0439 13.8219
2 9.20624 25.2141 14.2052
1 9.31322 23.3348 14.3637
1 9.31087 25.2702 16.1647
1 7.23186 23.0506 17.2106
1 9.32975 23.0729 19.0563
2 7.35886 23.0644 19.1521
1 7.37228 25.0117 19.5075
1 7.33419 23.0676 21.1219
2 7.36016 25.0231 21.4827
1 9.32141 25.0487 21.8539
1 7.36557 25.0208 23.4573
2 9.31974 25.0313 23.8151
1 9.31614 23.0523 23.9118
1 9.31878 25.1856 25.7447
1 7.17069 23.1129 26.7447
1 9.28497 23.0652 28.6492
2 11.2761 26.9368 28.6483
1 11.2826 1.42879 0.227901
1 11.2702 26.9383 1.84143
2 11.2875 1.39792 2.25787
1 13.2262 1.45107 2.68249
1 11.2823 1.47459 4.24614
2 13.2254 1.43958 4.66661
1 13.2147 26.9403 5.09082
1 13.2472 1.44345 6.66283
2 13.2513 26.9403 7.07089
1 11.3088 -0.420839 7.46807
1 13.2471 -0.424715 9.04922
2 11.3009 -0.31064 9.44227
1 11.2923 1.56467 9.87412
1 11.2851 -0.34207 11.464
2 11.29 1.55665 11.8747
1 13.2501 1.52266 12.2838
1 11.2872 1.55579 13.8481
2 13.2423 1.60321 14.2616
1 13.2727 -0.247399 14.7909
1 13.2219 1.57384 16.3051
2 13.2398 -0.378191 16.7343
1 11.2818 -0.390113 17.1074
1 13.2345 -0.409147 18.7064
2 11.2788 -0.445823 19.0847
1 11.2517 1.50476 19.4919
1 11.288 -0.447964 21.0593
2 11.2887 1.49668 21.4687
1 13.241 1.49241 21.8968
1 11.2917 1.49407 23.4425
2 13.2392 1.49478 23.8738
1 13.2308 -0.452232 24.2825
1 13.2451 1.49259 25.8507
2 13.2344 -0.45103 26.2617
1 11.2782 -0.458745 26.6703
1 13.2331 26.9583 28.2355
2 11.2844 3.41072 28.6107
1 11.2629 5.39134 -0.112377
1 11.2966 3.26371 1.73998
1 13.433 5.36892 2.83407
1 11.2948 5.38144 4.64519
2 13.278 5.27258 4.75436
1 13.2433 3.35616 5.07056
1 13.2802 5.18991 6.73946
2 13.2521 3.31953 7.09391
1 11.2828 3.40751 7.49356
1 13.2484 3.41513 9.065
2 11.2892 3.47276 9.46409
1 11.309 5.40118 9.8589
1 11.3125 3.47522 11.4576
2 11.3973 5.40413 11.8533
1 13.2737 5.39718 12.2567
1 11.3715 5.41685 13.8939
2 13.2665 5.40131 14.2692
1 13.2192 3.48093 14.6584
1 13.2306 5.39295 16.2739
2 13.2014 3.47831 16.6464
1 11.2167 3.47475 17.0615
1 13.0477 3.46622 18.5788
2 11.1772 3.45622 19.0776
1 11.2645 5.40882 19.4921
1 11.2919 3.44605 21.0535
2 11.3094 5.40027 21.4697
1 13.245 5.40684 21.8922
1 11.303 5.38521 23.4582
2 13.2438 5.40178 23.876
1 13.2502 3.44793 24.2885
1 13.2457 5.40135 25.8576
2 13.248 3.43926 26.2646
1 11.2897 3.38751 26.6483
1 13.2441 3.42544 28.2426
2 11.2022 7.36596 28.6337
1 11.2336 9.33796 0.217666
1 11.3148 7.51365 1.77593
2 11.2817 9.37702 2.24306
1 13.2644 9.33448 2.34321
1 11.1366 9.3058 4.18272
1 13.275 7.1581 5.33788
2 13.2334 6.97612 7.23025
1 11.3493 7.3539 7.49622
1 13.2307 7.31643 9.10708
2 11.279 7.33879 9.48665
1 11.2944 9.2505 9.88879
1 11.2949 7.33193 11.4674
2 11.2912 9.25212 11.8887
1 13.2491 9.24179 12.2602
1 11.2905 9.27367 13.8617
2 13.2492 9.2478 14.2274
1 13.2647 7.31029 14.6533
1 13.2238 9.12979 16.1706
2 13.233 7.27401 16.6834
1 11.2808 7.35886 17.0999
1 13.2303 7.35102 18.6605
2 11.2781 7.36137 19.0793
1 11.2685 9.31227 19.4991
1 11.2958 7.36026 21.058
2 11.2778 9.31607 21.4739
1 13.2393 9.31341 21.8855
1 11.2795 9.32602 23.4484
2 13.2369 9.29615 23.8569
1 13.216 7.35277 24.2529
1 13.262 9.29084 25.8457
2 13.3116 7.35166 26.2357
1 11.3891 7.40806 26.6734
1 13.1224 7.3684 28.1912
2 11.2723 11.2198 28.6541
1 11.2931 13.0716 0.378872
1 11.2797 11.2521 1.88777
2 11.2796 13.218 2.31772
1 13.2345 13.2269 2.7166
1 11.2904 13.17 4.28792
2 13.2352 13.3406 4.68654
1 13.245 11.4608 5.33895
1 13.2067 13.4484 6.69295
2 13.24 11.6648 7.22847
1 11.3686 11.2176 7.49527
1 13.2333 11.2787 9.10435
2 11.2956 11.1296 9.48975
1 11.2681 12.9955 9.96397
1 11.2902 11.1622 11.5047
2 11.2855 13.0792 11.9232
1 13.2504 13.1814 12.2655
1 11.2915 13.1091 13.8984
2 13.251 13.1118 14.2362
1 13.2635 11.1926 14.3035
1 13.2728 13.2442 16.1981
1 11.0851 11.2616 17.2032
1 13.2195 11.2431 19.038
2 11.2404 11.265 19.1311
1 11.2573 13.2185 19.5052
1 11.2058 11.2675 21.0918
2 11.1561 13.2274 21.4813
1 13.0331 13.1681 21.9514
1 11.2037 13.2571 23.4939
2 13.2161 13.2157 23.872
1 13.2316 11.2224 24.2483
1 13.1914 13.0477 25.7986
2 13.2415 11.1791 26.2694
1 11.2665 11.2753 26.686
1 13.2538 11.2411 28.2413
1 11.2608 17.3594 0.344739
1 11.2466 15.1948 2.24608
2 11.2422 17.1903 2.25584
1 13.1583 17.1752 2.62351
1 11.1805 17.2646 4.22059
2 13.1036 17.2329 4.61823
1 13.2216 15.2845 4.98923
1 13.2423 17.2323 6.59789
2 13.2172 15.3404 6.98955
1 11.2419 15.362 7.01407
1 13.3072 15.3163 8.95175
1 11.2157 17.7217 10.4144
1 11.2632 15.0011 11.8131
2 11.2759 16.8188 12.0401
1 13.2191 17.1322 11.996
1 11.0841 17.1611 13.8578
1 13.2259 15.0014 14.6923
1 13.2455 16.9742 16.5529
2 13.2659 15.1084 16.6666
1 11.3361 15.1277 17.0465
1 13.2669 15.1302 18.654
2 11.3664 15.1729 19.0767
1 11.2419 17.1381 19.5151
1 11.242 15.1839 21.059
2 11.1462 17.1545 21.4838
1 13.0254 17.2081 21.9438
1 11.1964 17.1386 23.4908
2 13.2048 17.1751 23.8667
1 13.2242 15.193 23.909
1 13.1467 17.3469 25.7888
1 11.0244 15.1967 26.3488
1 13.2059 15.1779 28.5959
2 11.2448 19.2331 28.6653
1 11.2522 21.1285 0.297765
1 11.24 19.1941 1.88444
2 11.268 21.1133 2.26888
1 13.0923 21.1052 2.80342
1 11.2129 21.0918 4.31681
2 13.2053 21.111 4.72707
1 13.2139 19.1722 5.04666
1 13.2243 21.0898 6.69174
2 13.2785 19.146 7.00074
1 11.2598 19.1057 7.39338
1 13.2605 19.0803 8.94377
2 11.3252 19.1352 9.25852
1 11.4933 20.5878 10.3506
2 11.495 21.4482 12.017
1 13.3744 21.1769 12.2938
1 11.559 21.1179 13.8702
2 13.4313 21.1342 14.3021
1 13.3327 19.2623 14.3617
1 13.3251 21.2471 16.2532
1 11.0312 19.0207 17.2203
1 12.9875 19.1541 19.0153
2 11.1048 19.1154 19.1573
1 11.2299 21.1001 19.5199
1 11.1746 19.1264 21.1064
2 11.2397 21.1 21.4896
1 13.1802 21.1336 21.905
1 11.2409 21.0894 23.4701
2 13.191 21.1248 23.879
1 13.2077 19.1844 24.2514
1 13.191 21.1344 25.8559
2 13.1953 19.226 26.2682
1 11.244 19.1532 26.6832
1 13.1931 19.1919 28.2548
2 11.2461 23.0697 -0.0643747
1 11.2578 25.0087 0.289568
1 11.28 23.067 1.91917
2 11.2613 25.0149 2.28266
1 13.1871 25.0549 2.70789
1 11.2602 25.0261 4.27403
2 13.1962 25.0007 4.69409
1 13.222 23.0507 5.07363
1 13.2197 24.9911 6.6777
2 13.248 23.0398 7.03527
1 11.2417 22.9976 7.12535
1 13.4031 23.0025 8.96162
1 11.2152 25.2494 9.90205
1 11.2756 23.2603 11.8333
2 11.2571 25.1749 11.8488
1 13.24 25.0872 11.8393
1 11.0991 25.2415 13.7739
1 13.343 23.0136 14.7569
1 13.2727 25.0833 16.6441
2 13.3361 23.1481 16.726
1 11.4658 23.0639 17.2043
1 13.2891 23.0707 18.7485
2 11.3056 23.0602 19.1378
1 11.2958 25.0235 19.5017
1 11.3019 23.0695 21.1002
2 11.2849 25.0272 21.4759
1 13.2318 25.0387 21.9038
1 11.2703 25.031 23.4486
2 13.2262 25.0293 23.8705
1 13.1885 23.082 24.2785
1 13.205 25.0296 25.8471
2 13.1835 23.0837 26.2502
1 11.3612 23.0665 26.787
1 13.1754 23.0816 28.3355
2 15.1928 -0.432295 28.6509
1 15.1894 1.48601 0.274876
1 15.1707 -0.423547 1.85971
2 15.1658 1.48851 2.2849
1 17.0919 1.53026 2.69569
1 15.1693 1.46168 4.27706
2 17.0915 1.48891 4.699
1 17.1051 -0.46309 5.10758
1 17.1366 1.48517 6.67688
2 17.1396 -0.458697 7.08265
1 15.1944 -0.460681 7.48044
1 17.1526 -0.45027 9.05532
2 15.2023 -0.448616 9.44957
1 15.2028 1.49743 9.87369
1 15.213 -0.449476 11.4186
2 15.1929 1.50022 11.8548
1 17.1319 1.49888 12.2638
1 15.1956 1.54392 13.8408
2 17.1339 1.59356 14.2579
1 17.1138 -0.272676 14.7864
1 17.1523 1.56806 16.2854
2 17.1386 -0.410305 16.7204
1 15.1941 -0.401847 17.1176
1 17.1469 -0.400373 18.6902
2 15.1949 26.9253 19.0922
1 15.1938 1.3566 19.6022
1 15.1883 26.9531 21.1246
2 15.1962 1.48475 21.5339
1 17.1548 1.51389 21.8933
1 15.1925 1.4833 23.4939
2 17.1562 1.53933 23.8608
1 17.1615 -0.378376 24.2374
1 17.1579 1.55787 25.8453
2 17.1559 -0.331022 26.2495
1 15.1912 -0.422967 26.6685
1 17.1529 -0.381207 28.2185
2 15.2034 3.37221 28.6681
1 15.2221 5.2287 0.403879
1 15.201 3.39754 1.90493
2 15.3005 5.3774 2.34321
1 17.1964 5.41868 2.70914
1 15.2712 5.35108 4.35523
2 17.1976 5.39228 4.70499
1 17.1508 3.44141 5.11738
1 17.1335 5.4092 6.68553
2 17.1483 3.43874 7.08551
1 15.2132 3.38079 7.49964
1 17.1452 3.45059 9.06179
2 15.197 3.44147 9.46792
1 15.1616 5.39748 9.86077
1 15.1855 3.44323 11.4364
2 15.1678 5.39844 11.8417
1 17.0536 5.39818 12.2289
1 15.1681 5.40391 13.8576
2 17.0393 5.43421 14.2757
1 17.1537 3.49239 14.6487
1 17.1318 5.43321 16.2566
2 17.1595 3.49132 16.6221
1 15.1844 3.48604 16.7118
1 17.2797 3.47884 18.557
1 15.1857 5.56296 19.5797
1 15.1933 3.45468 21.4472
2 15.1914 5.4219 21.5208
1 17.1365 5.41282 21.8824
1 15.1956 5.44764 23.4946
2 17.1421 5.42379 23.8679
1 17.1414 3.47733 24.2735
1 17.1845 5.41847 25.8486
2 17.1628 3.48324 26.2628
1 15.2008 3.45449 26.6865
1 17.1576 3.47903 28.2389
1 15.2911 9.45323 0.362562
1 15.2423 7.35482 2.26479
2 15.2436 9.31947 2.30208
1 17.2293 9.31385 2.65397
1 15.4132 9.36017 4.23389
2 17.3018 9.3023 4.67877
1 17.2121 7.35776 5.10785
1 17.1191 9.30742 6.67383
2 17.0361 7.36612 7.0863
1 15.1082 7.38604 7.50402
1 17.068 7.35529 9.08662
2 15.1647 7.36685 9.5025
1 15.1565 9.31201 9.90208
1 15.1896 7.35446 11.4588
2 15.1941 9.30337 11.8765
1 17.1341 9.29704 12.2982
1 15.1987 9.29337 13.8533
2 17.1434 9.31785 14.2723
1 17.1136 7.37344 14.6891
1 17.1778 9.31428 16.2478
2 17.1356 7.37574 16.6767
1 15.189 7.35657 17.0896
1 17.1337 7.37275 18.6678
2 15.1852 7.41995 19.0664
1 15.1907 9.29016 19.4656
1 15.1957 7.37769 21.1042
2 15.2067 9.24911 21.4964
1 17.164 9.31719 21.9008
1 15.2036 9.30295 23.4644
2 17.1604 9.32324 23.8764
1 17.203 7.37416 24.2541
1 17.1922 9.32156 25.8548
2 17.225 7.36848 26.2206
1 15.2508 7.35733 26.3169
1 17.3712 7.36515 28.1546
2 15.2227 11.2765 28.6561
1 15.1954 13.0867 0.401981
1 15.2193 11.2629 1.95333
2 15.1975 13.2012 2.34416
1 17.1627 13.1978 2.69883
1 15.1923 13.1663 4.30893
2 17.1737 13.1159 4.66887
1 17.251 11.2329 5.10487
1 17.0918 13.1505 6.68856
2 17.096 11.2374 7.11391
1 15.1172 11.2572 7.51
1 17.0669 11.2392 9.11042
2 15.1581 11.2614 9.51124
1 15.1254 13.239 9.88318
1 15.2024 11.2676 11.4706
2 15.1876 13.2341 11.8647
1 17.1275 13.2438 12.2795
1 15.2004 13.2186 13.8529
2 17.1344 13.2262 14.2659
1 17.1405 11.2669 14.6749
1 17.1663 13.2235 16.2378
2 17.2319 11.2693 16.6473
1 15.3677 11.1641 17.1155
1 17.1817 11.2529 18.6753
2 15.2023 11.2152 19.0549
1 15.2147 13.1427 19.0361
1 15.2644 11.1098 21.0082
1 17.3708 13.2332 21.989
1 15.2111 13.2276 23.8206
2 17.2117 13.2141 23.9131
1 17.1697 11.2704 24.2915
1 17.2611 13.2117 25.8755
2 17.194 11.2686 26.2728
1 15.2217 11.2661 26.6867
1 17.1849 11.2912 28.2472
1 15.0869 17.2708 0.290777
1 15.176 15.1587 2.24653
2 15.1604 17.0868 2.23542
1 17.1495 17.0878 2.29406
1 15.0005 17.2499 4.16409
1 17.1126 14.9893 5.12437
1 17.1743 17.1737 7.0285
2 17.0517 15.1782 7.04592
1 15.1551 15.2519 7.40946
1 16.9712 15.1238 8.99022
2 15.1418 15.2103 9.47633
1 15.2281 17.171 9.86184
1 15.1841 15.2053 11.4438
2 15.2204 17.1651 11.8267
1 17.2383 17.179 12.2306
1 15.4218 17.1441 13.7494
2 17.29 17.1337 14.2537
1 17.1949 15.1842 14.6656
1 17.2389 17.1215 16.2354
2 17.1953 15.1739 16.6426
1 15.2282 15.1539 16.9815
1 17.1938 15.1417 18.6184
2 15.2328 15.0644 18.9412
1 15.2382 16.9539 19.0729
1 15.2127 15.0843 20.8282
1 17.377 17.091 21.9713
1 15.1991 17.1324 23.8159
2 17.2107 17.1179 23.8963
1 17.255 15.1655 24.2527
1 17.2367 17.1104 25.8639
2 17.3573 15.1636 26.2225
1 15.4689 15.1633 26.3854
1 17.4316 15.1737 28.1721
2 15.1406 19.1811 28.654
1 15.1448 21.1163 -0.0735374
1 15.1688 19.0035 1.80988
1 17.3273 21.0442 2.83021
1 15.2014 21.1297 4.66903
2 17.1847 21.1846 4.7533
1 17.1876 19.3104 5.21627