1729
Atoms. Timestep: 688
2 -0.0952019 -0.0953396 0.240936
1 -0.105432 1.80398 0.482574
1 -0.067025 -0.108473 2.11548
2 -0.0978165 1.83657 2.45182
1 1.80441 1.80864 2.8163
1 -0.101087 1.79889 4.41891
2 1.8128 1.78978 4.7882
1 1.87251 -0.150617 5.18166
1 1.8027 1.79214 6.75562
2 1.82211 -0.103698 7.16231
1 -0.0934234 -0.117295 7.55576
1 1.83147 -0.122612 9.13634
2 -0.0362614 -0.151416 9.52299
1 -0.226762 1.82312 9.90649
1 -0.0809335 -0.0734822 11.4866
2 -0.069653 1.83244 11.9167
1 1.81192 1.83261 12.2983
1 -0.116096 1.80729 13.8645
2 1.80388 1.81651 14.2755
1 1.807 -0.0842034 14.6712
1 1.80966 1.81223 16.2491
2 1.8081 -0.0985415 16.647
1 -0.100105 -0.10329 17.036
1 1.80849 -0.101272 18.6187
2 -0.0999149 -0.100698 19.0134
1 -0.0983969 1.80618 19.4087
1 -0.0991719 -0.100765 20.9891
2 -0.0995319 1.80557 21.3841
1 1.80541 1.80715 21.7804
1 -0.0979844 1.80715 23.3578
2 1.80409 1.80642 23.7496
1 1.80319 -0.0986935 24.1567
1 1.73592 1.76211 25.7378
2 2.07664 -0.0941242 26.0472
1 1.64908 -0.0948128 27.905
2 -0.0840811 3.70649 0.0399328
1 -0.0986426 5.6216 0.445244
1 -0.0357546 3.75953 2.02973
2 -0.348731 5.62236 2.33763
1 0.0732537 5.61645 4.19387
2 1.80595 5.61615 4.98093
1 1.8075 3.71594 5.20581
1 1.79087 5.61144 6.85041
2 1.80817 3.6876 7.18186
1 -0.102452 3.71182 7.56408
1 1.82173 3.71154 9.15251
2 -0.0540459 3.77513 9.51914
1 -0.102747 5.63634 9.92752
1 -0.167535 3.75767 11.4996
2 0.136993 5.61937 11.8228
1 1.89953 5.61966 12.3186
1 -0.267867 5.61544 13.6824
2 1.78884 5.61943 14.2576
1 1.77494 3.72625 14.6583
1 1.77997 5.62025 16.2284
2 1.807 3.71626 16.642
1 -0.0996948 3.70938 17.0344
1 1.8065 3.71609 18.6182
2 -0.0994087 3.71432 19.0132
1 -0.0996608 5.61921 19.4102
1 -0.100498 3.71414 20.9917
2 -0.0999503 5.62084 21.387
1 1.80889 5.62045 21.7869
1 -0.101861 5.61932 23.3647
2 1.81105 5.61289 23.7603
1 1.81165 3.70166 24.1623
1 1.82539 5.60905 25.7368
2 1.81635 3.68744 26.1262
1 -0.095648 3.71259 26.5263
1 1.81443 3.71714 28.0889
2 -0.0941993 7.52908 0.0375989
1 -0.108295 9.42663 0.446837
1 -0.0537533 7.48956 2.02923
2 -0.111028 9.42339 2.41457
1 1.79744 9.43624 2.81091
1 -0.108274 9.43036 4.38347
2 1.79859 9.43071 4.78403
1 1.79968 7.51526 5.2104
1 1.79469 9.44597 6.75641
2 1.76002 7.54317 7.19115
1 -0.111442 7.53381 7.55269
1 1.78218 7.53127 9.18438
2 -0.130681 7.533 9.52531
1 -0.096717 9.42329 9.93656
1 -0.188787 7.47608 11.5161
2 -0.128618 9.40304 11.9032
1 1.78438 9.40674 12.2943
1 -0.112352 9.43964 13.8733
2 1.79035 9.42938 14.2746
1 1.77249 7.51309 14.6569
1 1.8028 9.42946 16.2457
2 1.80649 7.52482 16.6403
1 -0.101246 7.52921 17.0349
1 1.80593 7.52805 18.6178
2 -0.0999005 7.52536 19.0109
1 -0.117668 9.43628 19.4033
1 -0.090449 7.52627 20.9855
2 -0.0604134 9.44 21.3859
1 1.81417 9.4306 21.7864
1 -0.0852672 9.427 23.3865
2 1.808 9.44835 23.7621
1 1.81064 7.52367 24.1535
1 1.81038 9.43922 25.7254
2 1.80572 7.5251 26.1255
1 -0.105651 7.5322 26.5206
1 1.80397 7.52527 28.0999
2 -0.115641 11.3366 0.0419177
1 -0.0957067 13.2429 0.447573
1 -0.101099 11.3355 2.0172
2 -0.109261 13.2382 2.41949
1 1.81427 13.2387 2.82132
1 -0.098523 13.2725 4.3846
2 1.83266 13.2779 4.78289
1 1.82478 11.3546 5.17229
1 1.79969 13.2578 6.74806
2 1.80725 11.3495 7.15357
1 -0.103292 11.3406 7.55608
1 1.80581 11.334 9.1314
2 -0.103785 11.3311 9.53183
1 -0.102776 13.2391 9.92358
1 -0.124963 11.3266 11.5107
2 -0.104282 13.2415 11.8992
1 1.80126 13.2419 12.2897
1 -0.103025 13.2449 13.8764
2 1.80219 13.2451 14.2689
1 1.80113 11.3385 14.6674
1 1.79687 13.2443 16.2467
2 1.79414 11.3386 16.6464
1 -0.114964 11.3217 17.0384
1 1.7979 11.3372 18.6257
2 -0.121337 11.3319 18.989
1 -0.101927 13.2466 19.3262
1 -0.0927914 11.3539 20.9618
2 -0.110219 13.2465 21.1993
1 1.63715 13.2465 21.9794
2 2.03713 13.2454 23.8445
1 1.73248 11.3833 24.144
1 1.79641 13.2469 25.7337
2 1.78453 11.3377 26.1292
1 -0.111324 11.3376 26.5211
1 1.79295 11.333 28.1
2 -0.0634166 15.1497 0.0398303
1 -0.0655949 17.0567 0.462692
1 -0.0856002 15.1552 2.03107
2 -0.0813607 17.0563 2.42937
1 1.97365 17.0633 3.00411
1 -0.194745 17.0579 4.36458
2 1.56523 17.0668 4.86768
1 1.8895 15.2062 5.17648
1 1.80642 17.0623 6.76089
2 1.82416 15.1536 7.16523
1 -0.0943019 15.1597 7.53776
1 1.80237 15.1506 9.13446
2 -0.100208 15.1492 9.52324
1 -0.0963058 17.0557 9.91784
1 -0.100479 15.1495 11.502
2 -0.101861 17.0495 11.8995
1 1.80657 17.0543 12.2962
1 -0.103393 17.0558 13.8758
2 1.80623 17.0533 14.2721
1 1.80295 15.1509 14.6686
1 1.80571 17.0558 16.2521
2 1.79411 15.1492 16.6477
1 -0.112741 15.1695 17.0379
1 1.79737 15.1534 18.6273
2 -0.121625 15.1607 18.9911
1 -0.121611 17.0554 19.4046
1 -0.104698 15.1404 20.9671
2 -0.106032 17.0506 21.3821
1 1.80548 17.0593 21.7818
1 -0.106854 17.06 23.355
2 1.79778 17.0417 23.7518
1 1.73964 15.109 24.1401
1 1.80145 17.048 25.7166
2 1.80819 15.155 26.129
1 -0.0829713 15.156 26.4983
1 1.81826 15.1553 28.1017
2 -0.112378 18.9644 0.0532482
1 -0.109148 20.8726 0.445073
1 -0.0736769 18.9534 2.03238
2 -0.0940054 20.8709 2.4163
1 1.80592 20.8713 2.80453
1 -0.0831436 20.8755 4.40133
2 1.81701 20.8782 4.79153
1 1.87213 18.9315 5.1793
1 1.83113 20.8891 6.76413
2 1.82339 18.9748 7.16176
1 -0.0900105 18.9611 7.5414
1 1.81652 18.9926 9.1339
2 -0.0935422 18.9602 9.52225
1 -0.119632 20.8643 9.93491
1 -0.105287 18.9463 11.5042
2 -0.161488 20.8115 11.8991
1 1.81168 20.986 12.2743
1 -0.102685 20.8686 13.8606
2 1.80648 20.8305 14.2885
1 1.80679 18.9524 14.6722
1 1.80658 20.8841 16.2339
2 1.80665 18.9652 16.6471
1 -0.0986554 18.9656 17.0365
1 1.80595 18.9621 18.6208
2 -0.100447 18.9647 19.0144
1 -0.0986458 20.8724 19.4102
1 -0.103386 18.9613 20.9898
2 -0.0995245 20.871 21.3859
1 1.80761 20.8743 21.7841
1 -0.10053 20.8755 23.3635
2 1.80552 20.8762 23.7592
1 1.80061 18.9623 24.151
1 1.78974 20.8787 25.7299
2 1.75893 18.9616 26.1299
1 -0.116506 18.9532 26.5293
1 1.78886 18.9671 28.1351
2 -0.100339 22.7856 0.0499917
1 -0.0701916 24.6977 0.487299
1 -0.068597 22.7871 2.03099
2 -0.0786085 24.6713 2.45434
1 1.97993 24.6786 3.00988
1 -0.192313 24.6726 4.38105
2 1.57051 24.678 4.87661
1 1.90271 22.8216 5.20223
1 1.8395 24.6677 6.77776
2 1.84736 22.7746 7.21928
1 -0.0935746 22.7839 7.53522
1 1.72981 22.775 9.24156
2 -0.17049 22.7717 9.50661
1 -0.112807 24.6756 9.93968
1 0.0331041 22.771 11.5239
2 -0.106648 24.752 11.9064
1 1.81559 24.5685 12.274
1 -0.0800104 24.6942 13.8899
2 1.8173 24.726 14.2971
1 1.80783 22.7775 14.5074
1 1.81054 24.6743 16.2376
2 1.8078 22.7788 16.6039
1 -0.0963865 22.7816 17.0246
1 1.80841 22.7787 18.6069
2 -0.0962595 22.7784 19.0087
1 -0.0994904 24.6847 19.4089
1 -0.0981333 22.7789 20.989
2 -0.0981364 24.6858 21.3845
1 1.81223 24.6816 21.784
1 -0.0979791 24.6844 23.3579
2 1.80229 24.688 23.7516
1 1.81512 22.7921 24.1608
1 1.76253 24.7347 25.744
2 1.79917 22.7988 26.1299
1 -0.0992096 22.7818 26.5301
1 1.80635 22.7736 28.1074
2 3.68871 -0.0657089 0.00812727
1 3.68775 1.80863 0.444774
1 3.68167 -0.105478 1.9735
2 3.70433 1.81759 2.41279
1 5.60986 1.82685 2.8056
1 3.7105 1.80517 4.38438
2 5.60822 1.79917 4.78565
1 5.5525 -0.134812 5.17157
1 5.62857 1.80452 6.74953
2 5.61221 -0.100481 7.15968
1 3.71929 -0.0988489 7.55129
1 5.62152 -0.0979168 9.13015
2 3.72772 -0.114719 9.52559
1 3.71873 1.80683 9.91424
1 3.71127 -0.0882677 11.4925
2 3.71579 1.81235 11.8969
1 5.62395 1.80571 12.2983
1 3.71472 1.81085 13.8788
2 5.62528 1.80268 14.2725
1 5.61665 -0.103617 14.6637
1 5.63981 1.79841 16.2506
2 5.63733 -0.108926 16.6404
1 3.71708 -0.102728 17.0367
1 5.62891 -0.0965134 18.6079
2 3.71911 -0.101036 19.0131
1 3.70218 1.80551 19.4007
1 3.71688 -0.101932 20.9929
2 3.70035 1.80595 21.3653
1 5.62668 1.81074 21.6985
1 3.72615 1.79632 23.3474
2 5.63965 1.79428 23.5655
1 5.62973 0.0625461 24.3524
2 5.6802 -0.348469 26.2204
1 3.85229 0.00655645 26.5242
1 5.63488 -0.09894 28.1285
2 3.70145 3.69858 0.0419449
1 3.72102 5.6136 0.431469
1 3.64567 3.7554 2.02578
2 3.955 5.61691 2.33385
1 5.71652 5.62124 2.83375
1 3.54667 5.6223 4.20151
2 5.61668 5.61289 4.768
1 5.58676 3.73105 5.18123
1 5.66131 5.65348 6.75751
2 5.63078 3.7242 7.15384
1 3.72239 3.72337 7.54106
1 5.62457 3.71169 9.12999
2 3.72557 3.71872 9.52267
1 3.75078 5.63274 9.91371
1 3.72769 3.71407 11.4961
2 3.76063 5.62071 11.9018
1 5.63872 5.63928 12.2936
1 3.7337 5.62322 13.9031
2 5.63135 5.6226 14.2752
1 5.62332 3.70861 14.6653
1 5.61851 5.61982 16.2451
2 5.61881 3.71119 16.6417
1 3.71282 3.7142 17.036
1 5.61873 3.71237 18.6202
2 3.71386 3.71314 19.0153
1 3.71334 5.62003 19.411
1 3.70978 3.71305 20.9933
2 3.7138 5.62008 21.3876
1 5.61876 5.59189 21.7985
1 3.72615 5.58753 23.3707
2 5.61833 5.6025 23.7704
1 5.63815 3.53137 24.346
1 5.6205 5.70732 25.7086
2 5.62396 3.94459 26.209
1 3.75395 3.6225 26.5089
1 5.61662 3.7172 28.106
2 3.70383 7.52681 0.0394917
1 3.70279 9.42352 0.452172
1 3.6414 7.47675 2.02603
2 3.69438 9.41337 2.41263
1 5.60352 9.41746 2.76623
1 3.70178 9.41329 4.38874
2 5.58271 9.38231 4.77276
1 5.58218 7.49777 5.18448
1 5.69237 9.35893 6.79138
2 5.38066 7.5109 7.09022
1 3.619 7.52861 7.57983
1 5.7967 7.53034 8.95105
2 3.73025 7.52551 9.51308
1 3.74076 9.42109 9.91131
1 3.73991 7.52632 11.4789
2 3.6631 9.43083 11.9008
1 5.52495 9.43841 12.3166
1 3.69171 9.43089 13.9036
2 5.64153 9.42892 14.2544
1 5.65076 7.53634 14.6553
1 5.64403 9.41614 16.2288
2 5.6188 7.51893 16.6409
1 3.71189 7.52505 17.036
1 5.61876 7.52565 18.6179
2 3.71271 7.52736 19.0148
1 3.71856 9.43636 19.4095
1 3.71843 7.52704 20.9926
2 3.71501 9.43675 21.3865
1 5.62424 9.46192 21.7757
1 3.71325 9.45983 23.3692
2 5.62081 9.44946 23.7526
1 5.61362 7.54805 24.1257
1 5.64524 9.45748 25.7349
2 5.62097 7.57376 26.1276
1 3.71278 7.54041 26.5264
1 5.62318 7.54417 28.1213
2 3.66757 11.3355 0.0449017
1 3.70209 13.2438 0.440565
1 3.71596 11.3419 2.03452
2 3.71271 13.263 2.40782
1 5.63011 13.2319 2.8055
1 3.76677 13.3304 4.39093
2 5.62471 12.9968 4.70328
1 5.59626 11.2392 5.2223
1 5.61602 13.4198 6.56115
2 5.58432 11.3299 7.15604
1 3.72197 11.3517 7.54844
1 5.61347 11.356 9.15409
2 3.70796 11.3343 9.53017
1 3.7097 13.2448 9.91681
1 3.69553 11.3392 11.4991
2 3.7156 13.2437 11.8926
1 5.64037 13.2208 12.3038
1 3.70393 13.2424 13.8679
2 5.58306 13.2412 14.2528
1 5.64228 11.3243 14.671
1 5.74011 13.2419 16.2586
2 5.56068 11.2786 16.6442
1 3.69622 11.3346 17.0426
1 5.62211 11.3414 18.6172
2 3.70884 11.3438 19.0176
1 3.68089 13.246 19.4286
1 3.67192 11.3491 20.9957
2 3.63628 13.2462 21.4106
1 5.53853 13.2475 21.761
1 3.79955 13.2436 23.3698
2 5.69594 13.2519 23.7274
1 5.69115 11.356 24.1637
1 5.68696 13.2376 25.7213
2 5.63695 11.3462 26.1395
1 3.69137 11.3517 26.483
1 5.52659 11.3379 28.0774
2 3.72135 15.1391 0.0114892
1 3.74931 17.0721 0.33728
1 3.70473 15.1644 1.98736
2 3.70135 17.0567 2.20909
1 5.41037 17.0095 3.05215
2 5.90178 17.341 4.78399
1 5.57536 16.8413 6.51561
2 5.62069 15.1418 7.36076
1 3.72427 15.146 7.58267
1 5.62541 15.1476 9.22816
2 3.6978 15.1531 9.55361
1 3.71012 17.0593 9.91542
1 3.704 15.1495 11.5143
2 3.71373 17.0545 11.8965
1 5.62124 17.0621 12.2952
1 3.71535 17.0559 13.876
2 5.62236 17.0625 14.2702
1 5.61334 15.1522 14.68
1 5.61761 17.077 16.2464
2 5.55991 15.2104 16.6474
1 3.6952 15.1536 17.0447
1 5.62215 15.1485 18.6201
2 3.70857 15.1484 19.0186
1 3.71898 17.0551 19.4104
1 3.67136 15.144 20.9974
2 3.7151 17.0548 21.3892
1 5.63126 17.0278 21.7738
1 3.71656 17.0447 23.3737
2 5.63687 17.0519 23.7459
1 5.65862 15.151 24.1578
1 5.68742 17.099 25.7367
2 5.63052 15.166 26.1281
1 3.72362 15.1447 26.4934
1 5.6275 15.1276 28.1064
2 3.73581 18.9824 0.00478767
1 3.73941 20.8608 0.423497
1 3.74888 18.9524 1.975
2 3.70197 20.874 2.39703
1 5.60037 20.8679 2.76678
1 3.69213 20.885 4.36802
2 5.55285 20.9104 4.75816
1 5.53604 19.0443 5.21652
1 5.62693 20.9053 6.75427
2 5.60121 18.9744 7.15248
1 3.72455 18.9409 7.54984
1 5.62094 18.9394 9.1074
2 3.72063 18.9777 9.5249
1 3.80172 20.9132 9.92199
1 3.71273 18.9545 11.4902
2 3.77646 20.8103 11.9018
1 5.63722 20.8707 12.3017
1 3.71439 20.8662 13.8641
2 5.62642 20.8811 14.2741
1 5.62092 18.975 14.661
1 5.63923 20.8819 16.2509
2 5.62119 18.9768 16.6427
1 3.71276 18.9705 17.0383
1 5.61938 18.9692 18.6213
2 3.71322 18.9645 19.0157
1 3.71209 20.8726 19.4107
1 3.71524 18.9616 20.9923
2 3.70983 20.8714 21.3892
1 5.60925 20.8682 21.7793
1 3.71342 20.8643 23.3762
2 5.61934 20.8639 23.7508
1 5.62118 18.9575 24.1523
1 5.68946 20.8227 25.7395
2 5.38247 18.9593 26.0475
1 3.61939 18.9806 26.5355
1 5.79554 18.9726 27.9096
2 3.71418 22.7641 0.0144681
1 3.68905 24.7079 0.328417
1 3.71092 22.792 1.97965
2 3.71412 24.6876 2.2076
1 5.45345 24.7022 2.98478
2 5.85869 24.7087 4.83895
1 5.52815 22.8384 5.09349
1 5.61618 24.6798 6.73303
2 5.61072 22.7852 6.96591
1 3.86313 22.7747 7.72738
2 3.53982 22.7786 9.57357
1 3.79993 24.6409 9.92625
1 3.57121 22.7766 11.512
2 3.7759 24.7461 11.9029
1 5.63087 24.6836 12.2978
1 3.71577 24.6914 13.8652
2 5.62812 24.6816 14.2712
1 5.61819 22.781 14.667
1 5.61761 24.685 16.2423
2 5.63719 22.7877 16.6423
1 3.71311 22.7793 17.0253
1 5.62631 22.7736 18.6077
2 3.71423 22.7781 19.0068
1 3.72089 24.6846 19.4115
1 3.71573 22.781 20.9906
2 3.71915 24.6848 21.3933
1 5.62872 24.7059 21.8137
1 3.72648 24.7251 23.3823
2 5.63837 24.7109 23.7717
1 5.63344 22.7602 24.1267
1 5.62624 24.5871 25.7057
2 5.63288 22.7199 26.1236
1 3.71114 22.7545 26.507
1 5.6243 22.7704 28.1036
2 7.52521 -0.093919 0.0858881
1 7.5318 1.80527 0.444113
1 7.48896 -0.114341 2.0456
2 7.52374 1.80312 2.41729
1 9.43651 1.80546 2.81322
1 7.51886 1.79482 4.39471
2 9.43817 1.80956 4.78655
1 9.44958 -0.102599 5.18704
1 9.43293 1.81104 6.76151
2 9.42933 -0.106619 7.15616
1 7.52051 -0.106701 7.53986
1 9.42405 -0.119689 9.13185
2 7.51906 -0.118068 9.52407
1 7.52722 1.80327 9.92341
1 7.52902 -0.107723 11.4944
2 7.52883 1.80248 11.8989
1 9.43312 1.78034 12.3134
1 7.53968 1.77371 13.883
2 9.43299 1.78709 14.2837
1 9.43295 -0.272859 14.8623
1 9.43212 1.89759 16.22
2 9.43302 0.13858 16.7236
1 7.57033 -0.169907 17.0302
1 9.43252 -0.108866 18.6158
2 7.52499 -0.111853 19.0192
1 7.5465 1.80073 19.3857
1 7.52946 -0.103073 20.99
2 7.54059 1.79504 21.3486
1 9.43047 1.79861 21.7807
1 7.55779 1.74189 23.3415
2 9.43036 2.04414 23.6699
1 9.43394 1.64155 25.5277
2 9.43911 -0.0816612 26.3201
1 7.51754 -0.03822 26.5517
1 9.43828 -0.115487 28.1869
2 7.53274 3.7048 0.0452791
1 7.52252 5.61916 0.42882
1 7.54227 3.71184 2.01655
2 7.57589 5.62836 2.41211
1 9.45274 5.62206 2.81204
1 7.55361 5.64083 4.41764
2 9.44736 5.63874 4.78417
1 9.44403 3.72591 5.19028
1 9.36065 5.68075 6.75991
2 9.42385 3.73624 7.1559
1 7.52707 3.71584 7.55667
1 9.43209 3.71794 9.13283
2 7.52659 3.72032 9.53361
1 7.52139 5.63616 9.96169
1 7.53036 3.70915 11.5072
2 7.53914 5.62072 11.9268
1 9.43462 5.61563 12.2953
1 7.53104 5.60803 13.8882
2 9.43653 5.63392 14.2657
1 9.43404 3.72935 14.6347
1 9.43376 5.62382 16.242
2 9.43052 3.75534 16.6389
1 7.52169 3.72427 17.0424
1 9.43125 3.71893 18.6206
2 7.52432 3.71331 19.0199
1 7.52307 5.61861 19.4144
1 7.53747 3.70655 21.0021
2 7.5248 5.61933 21.3874
1 9.43042 5.628 21.7893
1 7.50889 5.59967 23.3685
2 9.43058 5.65722 23.7644
1 9.43182 3.80149 24.1786
1 9.4315 5.62142 25.7731
2 9.43036 3.66907 26.1113
1 7.49468 3.61166 26.5098
1 9.43259 3.6965 28.0646
2 7.53454 7.54629 0.0454181
1 7.62699 9.48371 0.45195
1 7.56365 7.54938 2.01221
2 7.56185 9.43129 2.43469
1 9.6033 9.42976 3.00213
1 7.4431 9.42755 4.36938
2 9.20697 9.4375 4.85267
1 9.50007 7.57937 5.18457
1 9.43434 9.43329 6.7629
2 9.68266 7.54103 7.08207
1 9.26159 7.52689 8.93006
2 7.53805 7.52773 9.72053
1 7.56218 9.43938 9.94867
1 7.60513 7.58069 11.5921
2 7.28804 9.457 11.84
1 7.68737 9.45213 13.6943
2 9.4119 9.43191 14.4789
1 9.42763 7.53497 14.6891
1 9.43477 9.41822 16.3464
2 9.43316 7.50449 16.6691
1 7.52457 7.51976 17.0387
1 9.4321 7.51216 18.6309
2 7.5243 7.52632 19.0177
1 7.5236 9.42849 19.4248
1 7.52016 7.52535 20.9976
2 7.53087 9.44869 21.3923
1 9.42499 9.40084 21.7807
1 7.5261 9.43263 23.3656
2 9.43157 9.42345 23.7372
1 9.43232 7.5255 24.1585
1 9.4317 9.44053 25.7082
2 9.43263 7.53661 26.1338
1 7.52834 7.53813 26.53
1 9.43339 7.522 28.108
2 7.28579 11.3396 0.131772
1 7.59332 13.2007 0.440688
1 7.55148 11.3309 2.03518
2 7.53903 13.2556 2.41931
1 9.42425 13.2459 2.82368
1 7.49858 13.2794 4.41475
2 9.43851 13.2329 4.78546
1 9.50743 11.2929 5.19249
1 9.49312 13.1914 6.76162
2 9.19804 11.3258 7.0797
1 7.43071 11.3693 7.56316
1 9.59824 11.3387 8.93091
2 7.56319 11.3372 9.50891
1 7.55528 13.2225 9.93222
1 7.62714 11.3034 11.5021
2 7.53415 13.2271 11.9344
1 9.42201 13.2505 12.3109
1 7.52782 13.2425 14.0248
2 9.47438 13.237 14.255
1 9.43894 11.3312 14.711
1 9.30748 13.2493 16.2655
2 9.49478 11.3004 16.6704
1 7.52759 11.4639 17.0253
1 9.44535 11.3795 18.6202
2 7.53979 11.2976 19.0245
1 7.51578 13.2463 19.284
1 7.5992 11.3901 20.9798
2 7.28978 13.2412 21.2433
1 7.67818 13.2554 23.1472
2 9.40003 13.271 23.9456
1 9.43754 11.3565 24.0863
1 9.42218 13.2366 25.8085
2 9.43441 11.3233 25.9584
1 7.68976 11.3321 26.7191
2 7.52797 15.1386 0.0447959
1 7.49392 17.067 0.48987
1 7.49132 15.1492 2.01675
2 7.52471 17.0229 2.44164
1 9.45455 17.0575 2.78041
1 7.618 16.9978 4.37278
2 9.48334 17.0616 4.78253
1 9.45122 15.1355 5.19835
1 9.43481 17.0609 6.75306
2 9.43369 15.134 7.15889
1 7.52235 15.1405 7.57578
1 9.43781 15.1469 9.13423
2 7.54643 15.1424 9.5619
1 7.52833 17.0597 9.92076
1 7.53718 15.1421 11.5231
2 7.52579 17.0611 11.895
1 9.43224 17.0554 12.2908
1 7.52503 17.0602 13.8737
2 9.4316 17.0524 14.2627
1 9.42612 15.1485 14.6643
1 9.43197 17.0671 16.2433
2 9.47624 15.2052 16.6155
1 7.52167 15.0242 17.0237
1 9.4446 15.1649 18.5779
2 7.54267 15.1925 19.0243
1 7.52027 17.0596 19.4256
1 7.61954 15.0914 20.9807
2 7.55832 17.0313 21.3879
1 9.49379 16.9945 21.7716
1 7.54103 17.0681 23.3445
2 9.42757 17.0438 23.7592
1 9.4217 15.1587 24.1895
1 9.35702 17.1062 25.7423
2 9.41552 15.1825 26.1477
1 7.52287 15.155 26.5234
1 9.41777 15.1728 28.1072
2 7.52638 18.9646 0.255478
1 7.56514 20.8612 0.496547
1 7.50995 18.9529 2.13951
2 7.54446 20.8891 2.45453
1 9.63103 20.8749 3.0153
1 7.42085 20.8948 4.38206
2 9.18201 20.8665 4.8664
1 9.50186 19.0088 5.17837
1 9.40295 20.8799 6.76719
2 9.43467 18.9631 7.16575
1 7.50438 18.9246 7.51327
1 9.42008 18.9872 9.12981
2 7.51564 18.9819 9.5169
1 7.45528 20.915 9.91081
1 7.53331 18.975 11.4906
2 7.52508 20.8708 11.9066
1 9.42901 20.9075 12.303
1 7.54304 20.9027 13.8888
2 9.43396 20.8946 14.2819
1 9.43383 18.953 14.6331
1 9.43647 20.782 16.2221
2 9.43458 18.9307 16.646
1 7.52803 18.961 17.0503
1 9.45213 18.9388 18.6438
2 7.52919 18.9626 19.0199
1 7.53293 20.875 19.4021
1 7.53847 18.9529 20.9954
2 7.48176 20.8691 21.3833
1 9.33938 20.8758 21.8052
1 7.50841 20.8603 23.3849
2 9.43699 20.829 23.7417
1 9.47426 18.9608 24.1426
1 9.38832 20.8071 25.7479
2 9.67706 18.9542 26.0542
1 9.25848 18.9572 27.9141
2 7.52918 22.7706 0.0511477
1 7.48841 24.6841 0.449485
1 7.53173 22.7824 2.03529
2 7.51325 24.6793 2.42669
1 9.45978 24.6843 2.77971
1 7.62804 24.6609 4.37145
2 9.49109 24.6659 4.78226
1 9.49652 22.7269 5.19209
1 9.40084 24.6618 6.75837
2 9.42877 22.7773 7.17482
1 7.35995 22.7804 7.73129
1 9.52852 22.7784 9.10444
2 7.76903 22.7783 9.60203
1 7.44277 24.6383 9.90402
1 7.52207 22.7766 11.4976
2 7.50708 24.6853 11.8784
1 9.42785 24.6754 12.195
1 7.5387 24.6861 13.8537
2 9.43228 24.6847 14.0705
1 9.43268 22.9514 14.8638
2 9.4333 22.5406 16.7273
1 7.57219 22.8488 17.034
1 9.43627 22.776 18.6265
2 7.52452 22.7888 19.023
1 7.52374 24.6849 19.4131
1 7.5197 22.7879 21.0009
2 7.52797 24.6952 21.3841
1 9.43956 24.6617 21.7909
1 7.56454 24.7763 23.38
2 9.43621 24.4427 23.686
1 9.47636 22.6747 24.1835
1 9.42989 24.8731 25.5418
2 9.42931 22.7709 26.1218
1 7.54732 22.7984 26.5259
1 9.43491 22.8096 28.094
2 11.3555 -0.0904913 0.0775131
1 11.3376 1.8093 0.443719
1 11.3791 -0.097184 2.03603
2 11.3619 1.81564 2.41846
1 13.3025 1.88124 2.82146
1 11.3542 1.80279 4.3826
2 13.2692 1.81615 4.79431
1 13.275 -0.0933926 5.16869
1 13.2391 1.80615 6.76232
2 13.2546 -0.102258 7.15182
1 11.3372 -0.106981 7.54868
1 13.2447 -0.102903 9.126
2 11.336 -0.0978472 9.52685
1 11.3371 1.80917 9.92387
1 11.3407 -0.097197 11.506
2 11.338 1.81059 11.9012
1 13.2434 1.81153 12.2975
1 11.3268 1.7763 13.8836
2 13.2426 1.80377 14.2708
1 13.2446 -0.100535 14.6678
1 13.2277 1.8007 16.2509
2 13.228 -0.107665 16.6427
1 11.2954 -0.171151 17.0323
1 13.2381 -0.0986612 18.6111
2 11.34 -0.115053 19.0211
1 11.3158 1.79841 19.386
1 11.3361 -0.106817 20.9902
2 11.315 1.79371 21.3485
1 13.2196 1.80665 21.6962
1 11.302 1.74032 23.345
2 13.2209 1.798 23.5641
1 13.2462 0.0687585 24.3555
2 13.2397 -0.33367 26.2151
1 11.3667 -0.0406669 26.5449
1 13.2561 -0.0479538 28.1053
2 11.3376 3.70385 0.0427523
1 11.3456 5.61046 0.425282
1 11.34 3.71573 2.01436
2 11.3666 5.62043 2.41237
1 13.2967 5.55753 2.81765
1 11.354 5.63499 4.39134
2 13.2597 5.61725 4.79333
1 13.2603 3.71115 5.18578
1 13.2634 5.62565 6.75275
2 13.2547 3.71502 7.15712
1 11.3332 3.74024 7.54522
1 13.2418 3.72118 9.12719
2 11.338 3.72211 9.52696
1 11.3159 5.6419 9.9224
1 11.342 3.72043 11.5023
2 11.3331 5.63761 11.8968
1 13.2448 5.66362 12.2831
1 11.3436 5.62519 13.8726
2 13.2457 5.62785 14.2679
1 13.2427 3.71167 14.664
1 13.2484 5.62361 16.2393
2 13.2452 3.71322 16.6368
1 11.3396 3.72475 17.0376
1 13.2337 3.71255 18.614
2 11.3353 3.71122 19.0183
1 11.3397 5.61538 19.4103
1 11.3212 3.70612 21.0005
2 11.3315 5.61727 21.3864
1 13.2292 5.5936 21.8
1 11.3514 5.60051 23.3729
2 13.2457 5.59727 23.7734
1 13.2116 3.53845 24.3273
1 13.2453 5.71161 25.7115
2 13.2182 3.94391 26.1788
1 11.3611 3.6114 26.5055
1 13.253 3.71007 28.0659
2 11.3347 7.52315 0.020353
1 11.2675 9.48034 0.347513
1 11.3644 7.53282 1.98571
2 11.3297 9.42652 2.22099
1 13.0643 9.44615 2.99986
2 13.468 9.4323 4.85772
1 13.2177 7.56297 5.1701
1 13.1714 9.47495 6.75227
2 13.2794 7.53921 7.16921
1 11.4348 7.52084 7.58719
1 13.264 7.54467 9.18252
2 11.305 7.532 9.51153
1 11.294 9.43103 9.94863
1 11.2212 7.5623 11.489
2 11.5006 9.41093 11.8493
1 13.2485 9.4313 12.3491
1 11.1352 9.41859 13.7088
2 13.2465 9.43464 14.2547
1 13.2468 7.55236 14.6515
1 13.2454 9.43483 16.2155
2 13.2472 7.52772 16.6396
1 11.3439 7.52248 17.0337
1 13.2491 7.52551 18.6173
2 11.3416 7.51884 19.0083
1 11.3461 9.41679 19.3779
1 11.3435 7.51906 20.9867
2 11.3282 9.39585 21.3824
1 13.2379 9.4708 21.7816
1 11.3363 9.42963 23.3665
2 13.2356 9.45479 23.7587
1 13.252 7.5462 24.1253
1 13.2187 9.46447 25.7291
2 13.2473 7.57927 26.1268
1 11.3388 7.52704 26.5194
1 13.2524 7.52046 28.1204
2 11.5793 11.3589 0.0946487
1 11.2569 13.2061 0.435518
1 11.3325 11.3291 1.98592
2 11.3237 13.2413 2.41956
1 13.2414 13.2471 2.78754
1 11.3374 13.25 4.38107
2 13.2257 13.2328 4.77321
1 13.1639 11.2989 5.18509
1 13.1822 13.1965 6.75911
2 13.4676 11.3405 7.08741
1 13.0746 11.324 8.95661
2 11.3265 11.3384 9.71612
1 11.3454 13.2288 9.9565
1 11.2448 11.2926 11.588
2 11.3339 13.2433 11.9198
1 13.2531 13.2048 12.277
1 11.3567 13.2536 13.8765
2 13.2554 13.2333 14.2649
1 13.249 11.314 14.6563
1 13.2578 13.2394 16.241
2 13.2543 11.3392 16.6504
1 11.3625 11.3633 17.0565
1 13.2314 11.3937 18.6577
2 11.327 11.3443 19.0155
1 11.2816 13.4596 19.6521
1 11.2621 11.2532 20.9507
2 11.5291 12.9685 21.399
1 13.2257 13.3374 21.8441
1 11.0954 13.301 23.1413
2 13.2713 13.2683 23.7513
1 13.1982 11.3865 24.1376
1 13.2499 13.2488 25.7159
2 13.2309 11.35 26.1344
1 11.1881 11.3531 26.6934
1 13.348 11.3677 28.0797
2 11.2835 15.1415 0.0385421
1 11.319 17.0786 0.429293
1 11.3432 15.1492 2.00819
2 11.3548 17.0684 2.40351
1 13.2661 17.076 2.78221
1 11.3592 17.0671 4.37729
2 13.2515 17.0765 4.77858
1 13.2535 15.1453 5.18533
1 13.2457 17.0656 6.7442
2 13.2365 15.1374 7.15177
1 11.3384 15.1517 7.55573
1 13.2442 15.1531 9.12961
2 11.3412 15.1437 9.53261
1 11.3362 17.0589 9.92176
1 11.3401 15.15 11.5072
2 11.3408 17.0579 11.8982
1 13.2506 17.0575 12.2935
1 11.3411 17.0551 13.8739
2 13.249 17.0607 14.2701
1 13.2685 15.1498 14.6516
1 13.2534 17.059 16.2488
2 13.2733 15.1478 16.6171
1 11.3613 15.1561 16.9493
1 13.2433 15.1384 18.6107
2 11.3421 15.1664 18.8183
1 11.3363 16.9043 19.6095
2 11.3554 17.3279 21.4721
1 13.2085 16.9656 21.7772
1 11.3428 17.0621 23.3709
2 13.2491 17.0407 23.7692
1 13.2766 15.1305 24.1696
1 13.3024 17.0362 25.7494
2 13.2577 15.1456 26.1375
1 11.3136 15.1753 26.4824
1 13.1404 15.1258 28.0717
2 11.3414 18.9602 0.0138541
1 11.3184 20.8584 0.359151
1 11.3438 18.988 1.99029
2 11.4011 20.8715 2.23282
1 13.2422 20.8692 3.07102
2 13.2165 20.8753 4.9222
1 13.252 19.0281 5.16275
1 13.2461 20.874 6.77384
2 13.2469 18.9589 7.16813
1 11.341 18.974 7.54449
1 13.246 18.9606 9.13641
2 11.3362 18.9664 9.52512
1 11.3488 20.8677 9.92907
1 11.3358 18.965 11.5061
2 11.3387 20.8705 11.9036
1 13.2449 20.8663 12.299
1 11.3252 20.9017 13.8828
2 13.2416 20.8745 14.2722
1 13.2417 18.9687 14.6688
1 13.2234 20.8778 16.2526
2 13.2448 18.9688 16.6437
1 11.3429 18.9275 17.0616
1 13.2351 18.9346 18.6239
2 11.3523 18.9428 19.0282
1 11.328 20.8968 19.3795
1 11.4337 19.1002 20.9776
2 11.0965 20.9232 21.2966
1 11.5047 20.8618 23.1701
2 13.2469 20.8616 23.9399
1 13.2381 18.9599 24.1659
1 13.2552 20.8625 25.8073
2 13.2948 18.9507 26.148
1 11.4414 18.936 26.5484
1 13.3183 19.0082 28.1569
2 11.3514 22.7786 0.0226321
1 11.3774 24.6842 0.420986
1 11.3695 22.7551 2.00212
2 11.3607 24.6736 2.40266
1 13.2687 24.6421 2.80918
1 11.3643 24.6711 4.38382
2 13.27 24.6734 4.78164
1 13.2807 22.7227 5.15652
1 13.249 24.6814 6.74282
2 13.2631 22.7882 7.15993
1 11.3641 22.7707 7.51124
1 13.2595 22.7786 9.12629
2 11.3859 22.775 9.52233
1 11.3638 24.688 9.91435
1 11.3461 22.7767 11.5054
2 11.3529 24.6856 11.8748
1 13.2398 24.6839 12.2996
1 11.3249 24.6861 13.8501
2 13.2305 24.6853 14.2753
1 13.2446 22.7786 14.667
1 13.2439 24.6851 16.2463
2 13.2279 22.7855 16.6403
1 11.2943 22.853 17.0282
1 13.2376 22.7748 18.605
2 11.3499 22.8001 19.0097
1 11.3375 24.681 19.4199
1 11.4035 22.7583 21.0047
2 11.3471 24.6823 21.3852
1 13.235 24.7086 21.8176
1 11.3062 24.7855 23.3822
2 13.2263 24.7093 23.7802
1 13.2236 22.7593 24.142
1 13.2566 24.5955 25.7244
2 13.2383 22.7409 26.1469
1 11.3236 22.7984 26.5148
1 13.2869 22.7052 28.1276
2 15.1526 -0.00480599 0.0787738
1 15.1537 1.9742 0.637063
1 15.1623 -0.173326 2.03858
2 15.1514 1.59084 2.49796
1 17.0251 1.88447 2.80903
1 15.2268 1.81853 4.40389
2 17.0851 1.83617 4.6736
1 17.0614 1.80426 6.52527
2 17.0619 -0.0457554 7.34128
1 15.1753 -0.0742567 7.56306
1 17.0651 -0.0951724 9.21597
2 15.1378 -0.099724 9.54642
1 15.148 1.80911 9.91882
1 15.1298 -0.0960454 11.5084
2 15.156 1.80884 11.899
1 17.0664 1.78887 12.2939
1 15.155 1.80401 13.8766
2 17.0607 1.80488 14.276
1 17.0889 -0.110843 14.661
1 17.0555 1.80782 16.2556
2 17.0561 -0.100516 16.6409
1 15.1486 -0.104615 17.0371
1 17.056 -0.102791 18.6163
2 15.1499 -0.10875 19.0129
1 15.1559 1.80198 19.4123
1 15.1457 -0.125152 20.992
2 15.106 1.74651 21.361
1 17.0596 1.93444 21.7653
1 15.1325 1.79665 23.322
2 17.0485 1.76596 23.7713
1 17.0569 -0.114803 24.1598
1 17.0623 1.81555 25.7154
2 17.0355 -0.0938997 26.1333
1 15.1048 0.00732235 26.5343
1 17.0366 -0.06288 28.1038
2 15.1571 3.70611 -0.153849
1 15.1488 5.44767 0.62878
2 15.154 5.84917 2.49092
1 17.0233 5.54248 2.82168
1 15.1992 5.55008 4.39074
2 17.0823 5.83438 4.71212
1 17.0586 5.40781 6.5607
2 17.0649 3.64823 7.34242
1 15.1742 3.68307 7.56425
1 17.0538 3.69925 9.213
2 15.1349 3.71858 9.55053
1 15.1464 5.62897 9.92708
1 15.1413 3.71846 11.5148
2 15.158 5.64017 11.8994
1 17.0502 5.61525 12.3089
1 15.1475 5.62224 13.8778
2 17.0507 5.6204 14.2854
1 17.0564 3.71107 14.6774
1 17.0564 5.61085 16.2639
2 17.0589 3.71023 16.6803
1 15.1617 3.71164 17.0503
1 17.0596 3.71497 18.7645
2 15.1129 3.71283 18.9977
1 15.1442 5.62246 19.4215
1 15.2809 3.71483 21.0058
2 15.0917 5.68029 21.3862
1 17.062 5.51023 21.7648
1 15.1411 5.59987 23.3561
2 17.055 5.66279 23.7768
1 17.0672 3.71257 23.9965
1 17.0344 5.60481 25.7228
2 17.0568 3.70535 26.0582
1 15.1042 3.63522 26.4233
1 17.0428 3.71885 28.0547
2 15.1508 7.51005 0.0669294
1 15.1387 9.45015 0.432071
1 15.1282 7.6226 2.01785
2 15.1364 9.47985 2.42586
1 17.0824 9.44983 2.78145
1 15.2355 9.45662 4.37151
2 17.1073 9.47226 4.78274
1 17.08 7.59811 5.19806
1 17.0833 9.44218 6.78447
2 17.0615 7.5015 7.14032
1 15.1621 7.52173 7.53212
1 17.0591 7.50211 9.10331
2 15.1697 7.53122 9.52017
1 15.1382 9.44973 9.91737
1 15.2451 7.57118 11.5032
2 14.9927 9.43616 11.8252
1 15.3646 9.43498 13.6913
2 17.0835 9.43371 14.4763
1 17.0657 7.53321 14.6979
1 17.0636 9.43527 16.3424
2 17.0593 7.50932 16.6736
1 15.1528 7.52586 17.0374
1 17.066 7.52964 18.6431
2 15.1545 7.53538 19.0122
1 15.1399 9.44945 19.4142
1 15.135 7.54584 20.988
2 15.1147 9.46026 21.3903
1 16.9689 9.43505 21.8182
1 15.1331 9.44417 23.3965
2 17.077 9.44569 23.7514
1 17.0886 7.55274 24.1525
1 17.1071 9.43772 25.7262
2 17.0572 7.5273 26.1352
1 15.1558 7.51867 26.5477
1 17.0455 7.50036 28.1207
2 15.2121 11.3621 0.0324243
1 15.2463 13.2791 0.441799
1 15.1225 11.3426 2.016
2 15.1616 13.2338 2.43449
1 17.0666 13.2489 2.80561
1 15.1392 13.2127 4.40597
2 17.0627 13.2531 4.78214
1 17.0795 11.3535 5.18969
1 17.0667 13.2547 6.76274
2 17.1045 11.3472 7.16894
1 15.2368 11.3292 7.56841
1 17.0866 11.3744 9.16617
2 15.1516 11.3425 9.50608
1 15.1152 13.2247 9.92234
1 15.2301 11.3075 11.4957
2 15.1788 13.2359 11.8965
1 17.102 13.3124 12.2911
1 15.1609 13.2363 13.8637
2 17.0573 13.2514 14.2805
1 17.0732 11.3359 14.6855
1 17.0614 13.2485 16.2523
2 17.0636 11.3566 16.6729
1 15.1507 11.3361 17.0422
1 17.0691 11.3424 18.6398
2 15.1598 11.3438 19.0059
1 15.1678 13.2518 19.412
1 15.2056 11.3942 20.9965
2 14.9688 13.2642 21.3123
1 15.345 13.2308 23.1843
2 17.0788 13.227 23.9354
1 17.0938 11.3362 24.1719
1 17.1017 13.2763 25.8079
2 17.0888 11.3421 26.1435
1 15.1787 11.3446 26.4831
1 17.0868 11.3329 28.0962
2 14.8946 15.0975 0.128569
1 15.2575 16.9103 0.447253
1 15.1512 15.1329 2.04368
2 15.1641 17.0828 2.40108
1 17.0503 17.0785 2.79514
1 15.1453 17.0984 4.36804
2 17.0459 17.0741 4.7821
1 17.0376 15.1591 5.16467
1 17.0574 17.0641 6.75571
2 17.0405 15.1578 7.12929
1 15.1402 15.1365 7.54664
1 17.0648 15.1455 9.10624
2 15.1534 15.1429 9.5261
1 15.1517 17.0544 9.92186
1 15.1525 15.1437 11.4969
2 15.1702 17.0475 11.8977
1 17.1028 16.9906 12.2883
1 15.1613 17.0647 13.866