1688
Atoms. Timestep: 795
2 -0.0453895 -0.0540103 -0.0661042
1 -0.0599849 1.83378 0.360389
1 0.0164311 -0.104553 1.9406
2 -0.05651 1.8246 2.3243
1 1.82563 1.88585 2.74297
1 -0.097276 1.74756 4.3288
2 1.8389 1.86816 4.71918
1 1.94522 -0.00228234 5.13241
1 1.84103 1.85228 6.71498
2 1.86834 -0.0533794 7.12243
1 -0.0402081 -0.0953607 7.49786
1 1.84512 -0.0708893 9.09039
2 -0.0495528 -0.00806976 9.51365
1 -0.011096 1.84776 9.93609
1 -0.0784955 -0.0662107 11.5512
2 -0.0408894 1.85162 11.9047
1 1.9946 1.82521 12.4828
1 -0.1993 1.95728 13.8624
2 1.57286 1.8427 14.3447
1 1.84694 -0.0238999 14.6512
1 1.83955 1.83991 16.2416
2 1.8456 -0.0550764 16.662
1 -0.077996 -0.0171494 17.0462
1 1.8361 -0.0607148 18.6329
2 -0.0684079 -0.0549676 19.0231
1 -0.0563671 1.83041 19.4286
1 0.0136334 -0.0284774 21.0289
2 -0.303138 1.79428 21.3496
1 0.118603 1.83572 23.2249
2 1.84702 1.84161 24.0257
1 1.84086 -0.0557304 24.2683
1 1.8409 1.84155 25.9003
2 1.85228 -0.092433 26.2399
1 -0.0555683 -0.0804809 26.6115
1 1.84265 -0.0575231 28.2007
2 -0.0761804 3.72247 -0.0699576
1 -0.057675 5.61633 0.321683
1 -0.134796 3.75644 1.94077
2 0.190438 5.58019 2.24105
1 1.94078 5.63774 2.76661
1 -0.22279 5.64797 4.11226
2 1.82427 5.65191 4.70852
1 1.7894 3.75689 5.11152
1 1.81529 5.63972 6.68737
2 1.83713 3.74558 7.10631
1 -0.068784 3.70662 7.5042
1 1.84183 3.75729 9.08919
2 -0.0547505 3.74168 9.50132
1 -0.0578974 5.63477 9.89725
1 -0.0295492 3.74311 11.5011
2 -0.0476123 5.64996 11.8711
1 1.83518 5.66825 12.3268
1 -0.0979133 5.67031 13.8947
2 1.82188 5.64531 14.2824
1 1.90239 3.69505 14.6394
1 1.87087 5.56402 16.212
2 1.84339 3.7107 16.6668
1 -0.0768112 3.79861 17.0987
1 1.82943 3.77412 18.6475
2 -0.0441321 3.76055 19.0818
1 -0.0579925 5.78912 19.6354
1 0.0503652 3.60898 21.0289
2 -0.0535374 5.38044 21.5103
1 1.79475 5.72177 21.8271
1 -0.0580261 5.65565 23.4104
2 1.84023 5.64787 23.8316
1 1.83186 3.74036 24.2486
1 1.83609 5.65593 25.8164
2 1.82945 3.76425 26.237
1 -0.0622818 3.74524 26.6072
1 1.82216 3.76253 28.2198
2 -0.0356261 7.5236 -0.0427843
1 0.0932293 9.60367 0.661738
1 -0.133075 7.39402 1.91671
2 -0.364223 9.12069 2.36852
1 0.143876 9.4807 4.08067
2 1.84897 9.45109 4.92481
1 1.80464 7.54623 5.13681
1 1.84852 9.43833 6.79542
2 1.84565 7.52616 7.13311
1 -0.0575469 7.53268 7.49747
1 1.84627 7.52606 9.10389
2 -0.0558365 7.52544 9.46547
1 -0.0669393 9.44975 9.79837
1 -0.0577878 7.5484 11.454
2 -0.0359298 9.44537 11.6614
1 1.71428 9.45364 12.3489
2 2.06848 9.44673 14.1427
1 1.75003 7.79025 14.8697
2 1.87138 7.32596 16.7059
1 -0.0292278 7.58218 17.0002
1 1.85463 7.5391 18.5936
2 -0.0326801 7.55043 18.8847
1 -0.0428766 9.2885 19.6515
2 -0.0574614 9.68846 21.526
1 1.79328 9.34109 21.8249
1 -0.0638484 9.45215 23.4329
2 1.84367 9.41429 23.7994
1 1.84337 7.53854 24.2323
1 1.84826 9.45718 25.7785
2 1.8406 7.55501 26.2135
1 -0.0612835 7.60286 26.6441
1 1.8305 7.56228 28.2054
2 -0.481004 10.9305 -0.355776
2 -0.400236 13.636 2.60304
1 0.112026 13.229 4.24967
2 1.8755 13.2354 4.96702
1 1.86626 11.3442 5.18895
1 1.8932 13.266 6.8303
2 1.84911 11.3456 7.16776
1 -0.0526022 11.3692 7.50335
1 1.85248 11.372 9.12471
2 -0.0529954 11.3691 9.47151
1 -0.0869875 13.248 9.93931
1 -0.104067 11.3472 11.4711
2 -0.0817476 13.2492 11.9077
1 1.87359 13.274 12.2576
1 0.0617519 13.209 13.8479
2 1.9036 13.2444 14.2727
1 1.7647 11.0922 14.9021
1 1.88611 13.3236 16.2169
2 1.85515 11.567 16.743
1 -0.0185406 11.2061 17.067
1 1.86017 11.3451 18.6352
2 -0.04268 11.3099 19.0672
1 -0.0375891 13.2572 19.4015
1 -0.0281128 11.4459 21.0087
2 -0.0300728 13.302 21.4251
1 1.89578 13.3535 21.8177
1 -0.047228 13.2643 23.4225
2 1.84721 13.2781 23.7942
1 1.85849 11.3466 24.0936
1 1.87962 13.2435 25.768
2 1.92603 11.353 25.9649
1 0.193004 11.3931 26.7221
2 -0.038868 15.4254 -0.173427
1 -0.0758663 17.179 0.34266
1 0.0539699 15.0765 1.69735
2 -0.0386152 17.0696 2.29786
1 1.77346 17.0828 2.7725
1 -0.0506971 16.9983 4.35333
2 1.86168 17.0052 4.73005
1 1.92437 15.1434 5.15036
1 1.9009 17.0238 6.74291
2 1.87165 15.159 7.16282
1 -0.0679354 15.1462 7.4731
1 1.75769 15.165 9.10748
2 -0.111473 15.1017 9.48623
1 -0.0897809 16.9598 9.92847
1 -0.180305 15.1606 11.5317
2 0.0921159 17.0851 11.7963
1 1.83143 17.0675 12.3217
1 -0.292437 17.0713 13.6466
2 1.86051 17.0538 14.2333
1 1.83937 15.1879 14.6215
1 1.8547 17.0495 16.2077
2 1.85735 15.1853 16.6222
1 -0.0564708 15.147 17.0437
1 1.86029 15.156 18.5951
2 -0.045607 15.1569 19.0319
1 -0.0764335 17.0495 19.4649
1 -0.0866985 15.168 21.0238
2 -0.0458137 17.0402 21.4463
1 1.91675 16.9697 21.8034
1 0.049958 17.0511 23.3796
2 1.89665 17.0414 23.8387
1 1.86148 15.1545 24.2354
1 1.83218 17.0443 25.8312
2 1.85115 15.1296 26.2074
1 -0.0590404 15.1342 26.6089
1 1.82077 15.11 28.2058
2 -0.0533414 19.0236 -0.0709345
1 -0.0169955 20.8827 0.352895
1 -0.0686976 18.9904 1.95485
2 -0.0356167 20.8839 2.3286
1 1.88806 20.7619 2.73182
1 -0.00592176 20.9104 4.30597
2 1.83625 20.5855 4.64397
1 1.87987 18.8347 5.15243
1 1.83391 21.0042 6.50705
2 1.85221 18.975 7.08973
1 -0.0346299 18.9716 7.50081
1 1.80947 19.008 9.10397
2 -0.0532033 18.7141 9.40054
1 -0.0945611 19.0683 11.2989
2 -0.055221 20.8452 12.08
1 1.83706 20.8265 12.3046
1 -0.0522833 20.8385 13.9582
2 1.86366 20.8403 14.2962
1 1.84789 18.9205 14.6526
1 1.88806 20.834 16.2621
2 1.87008 18.9339 16.6559
1 -0.0426008 18.9486 17.0657
1 1.86967 18.9127 18.6399
2 -0.0432843 18.9442 19.0488
1 -0.0441737 20.8408 19.4584
1 -0.0627189 18.9268 21.0468
2 -0.0570292 20.8425 21.4425
1 1.84193 20.8544 21.8443
1 -0.0596388 20.8362 23.4432
2 1.85853 20.8456 23.8202
1 1.85061 18.9507 24.2235
1 1.91484 20.8872 25.8194
2 1.83572 18.9626 26.1854
1 -0.0669852 18.9742 26.5994
1 1.86123 18.9565 28.1677
2 0.0445006 22.7477 -0.0960014
1 -0.00115856 24.635 0.324244
1 0.0717894 22.7933 1.92757
2 -0.307314 24.6396 2.19668
1 -0.0477961 24.5912 4.0995
2 1.4648 24.9049 4.96007
1 1.87769 24.4543 6.6287
2 1.84934 22.7012 7.34871
1 -0.0601331 22.7826 7.52603
1 1.78092 22.6444 9.21468
2 -0.084797 22.9764 9.43385
1 -0.0730765 24.7385 9.9264
1 -0.104964 22.632 11.323
2 0.178199 24.6015 11.7857
1 1.92687 24.6192 12.3043
1 -0.238405 24.6046 13.635
2 1.8291 24.6617 14.2499
1 1.81939 22.758 14.6622
1 1.80206 24.6576 16.2218
2 1.83702 22.7488 16.6532
1 -0.0584558 22.7403 17.0616
1 1.83374 22.7579 18.6478
2 -0.0632817 22.7485 19.0502
1 -0.0920345 24.6589 19.4492
1 -0.0597967 22.7524 21.0341
2 -0.0504398 24.6608 21.4378
1 1.84675 24.6453 21.846
1 -0.0542392 24.6286 23.4293
2 1.85669 24.651 23.8205
1 1.85286 22.745 24.2282
1 1.91271 24.5993 25.8184
2 1.62503 22.7462 26.126
1 -0.138278 22.743 26.6066
1 2.01757 22.6898 27.9987
2 3.72688 -0.0335942 -0.100709
1 3.73203 1.83404 0.363373
1 3.64974 -0.108524 1.93757
2 3.72628 1.82671 2.33108
1 5.64032 1.82737 2.71408
1 3.74711 1.87461 4.30234
2 5.63655 1.8281 4.71137
1 5.57744 -0.0980387 5.11313
1 5.64699 1.83544 6.69088
2 5.63427 -0.053477 7.11455
1 3.74011 -0.0883198 7.50085
1 5.64889 -0.0612686 9.09565
2 3.74736 -0.0767038 9.46587
1 3.74066 1.8463 9.80828
1 3.75054 -0.0449561 11.4414
2 3.73715 1.84684 11.6858
1 5.47388 1.83964 12.4805
2 5.88335 1.84119 14.345
1 5.58911 -0.0127335 14.6598
1 5.65335 1.83289 16.2478
2 5.64777 -0.0549473 16.6729
1 3.74383 -0.0572985 17.0671
1 5.65842 -0.04522 18.6499
2 3.73634 -0.0495031 19.0416
1 3.74118 1.84786 19.4564
1 3.67929 -0.00769736 21.0417
2 3.98259 1.85253 21.3566
1 5.74429 1.84967 21.8722
1 3.57678 1.8422 23.2245
2 5.63006 1.8401 23.815
1 5.64496 -0.0555063 24.2264
1 5.64718 1.84297 25.8017
2 5.65062 -0.0737964 26.2193
1 3.75325 -0.0317532 26.6021
1 5.64847 -0.0408587 28.2209
2 3.68383 3.7473 -0.0495519
1 3.73498 5.66801 0.359303
1 3.74869 3.74532 1.9263
2 3.78666 5.66971 2.33342
1 5.65478 5.6591 2.72395
1 3.76274 5.64783 4.34643
2 5.65434 5.64818 4.72127
1 5.65053 3.7409 5.1185
1 5.65402 5.64856 6.69967
2 5.645 3.74115 7.10312
1 3.74284 3.75844 7.49425
1 5.64159 3.74901 9.09353
2 3.74312 3.76562 9.46702
1 3.74832 5.65485 9.9053
1 3.7376 3.74195 11.4565
2 3.73707 5.64689 11.8915
1 5.63947 5.67408 12.319
1 3.73184 5.73606 13.8923
2 5.63312 5.65594 14.2859
1 5.57036 3.69402 14.6376
1 5.65091 5.56224 16.2248
2 5.63111 3.70472 16.669
1 3.74116 3.72382 17.077
1 5.6417 3.73697 18.6653
2 3.72803 3.74638 19.0463
1 3.74719 5.64526 19.4273
1 3.6553 3.71279 21.0404
2 3.70878 5.63492 21.4188
1 5.62237 5.62419 21.8069
1 3.72401 5.63764 23.4008
2 5.59404 5.63825 23.8189
1 5.62741 3.72696 24.2478
1 5.66357 5.63483 25.812
2 5.62925 3.74083 26.2435
1 3.7177 3.74782 26.5921
1 5.52404 3.74353 28.2051
2 3.72756 7.56826 -0.0653311
1 3.69523 9.48739 0.34814
1 3.68624 7.60718 1.92432
2 3.93852 9.46931 2.25334
1 5.71405 9.48814 2.73705
1 3.57119 9.43949 4.11954
2 5.61864 9.45002 4.69265
1 5.61602 7.56162 5.10785
1 5.6217 9.44896 6.67632
2 5.64847 7.54931 7.10238
1 3.74682 7.53866 7.50789
1 5.64927 7.55187 9.09173
2 3.74899 7.55115 9.4974
1 3.72033 9.45347 9.89285
1 3.71559 7.55748 11.4922
2 3.71167 9.4537 11.8396
1 5.64578 9.47063 12.1556
1 3.8355 9.48909 13.7965
2 5.64626 9.51675 14.0624
1 5.64539 7.75922 14.8871
2 5.64977 7.32266 16.7315
1 3.7529 7.70218 17.0168
1 5.64933 7.53893 18.6134
2 3.7485 7.55376 19.0446
1 3.76345 9.43538 19.4157
1 3.74838 7.53097 21.0167
2 3.72867 9.39086 21.4345
1 5.64904 9.43185 21.8421
1 3.73911 9.44169 23.4122
2 5.64552 9.44693 23.827
1 5.62957 7.54704 24.2366
1 5.61854 9.458 25.821
2 5.64615 7.54559 26.2194
1 3.74293 7.54217 26.6215
1 5.64451 7.55523 28.2125
2 3.94159 11.3287 0.00506685
1 3.64238 13.1623 0.334886
1 3.52578 11.332 1.92333
2 3.96018 13.1692 2.24817
1 5.72882 13.1812 2.73364
1 3.57889 13.2344 4.11639
2 5.62103 13.2313 4.6719
1 5.58108 11.3416 5.09562
1 5.62112 13.2442 6.64922
2 5.64636 11.3481 7.09592
1 3.75082 11.3441 7.50831
1 5.6469 11.3483 9.08604
2 3.75666 11.3686 9.49814
1 3.80887 13.293 9.89392
1 3.71312 11.3536 11.4847
2 3.76236 13.2607 11.8657
1 5.65507 13.237 12.2379
1 3.7707 13.1982 13.8753
2 5.65322 13.2376 14.1056
1 5.64823 11.3789 14.9372
2 5.6503 11.2771 16.7846
1 3.77135 11.2961 17.0476
1 5.6345 11.4084 18.6358
2 3.74416 11.356 19.0812
1 3.74307 13.3966 19.6266
1 3.72106 11.2454 21.0166
2 3.74725 13.0075 21.511
1 5.60095 13.3147 21.8275
1 3.75109 13.2527 23.4171
2 5.6465 13.2577 23.835
1 5.61131 11.3499 24.241
1 5.61344 13.241 25.8256
2 5.62458 11.3481 26.2404
1 3.61229 11.3398 26.7961
1 5.7239 11.3538 28.2098
2 3.71997 15.1041 -0.0632978
1 3.77761 17.2481 0.592363
1 3.72052 15.0002 1.88343
2 3.48135 16.7317 2.32484
1 3.9361 17.0899 4.06218
2 5.61757 17.0688 4.88508
1 5.59469 15.1454 5.05315
1 5.64866 17.0371 6.75512
2 5.64584 15.1266 6.93197
1 3.91128 15.1416 7.70573
2 3.53296 15.1456 9.57047
1 3.80263 17.0138 9.89205
1 3.84984 15.1881 11.4762
2 3.57675 17.0477 11.7984
1 3.94558 17.0084 13.663
2 5.66403 16.9478 14.3146
1 5.67127 15.1128 14.931
2 5.67099 15.1402 16.7778
1 3.82099 15.1632 16.9764
1 5.6431 15.1357 18.6332
2 3.73871 15.1455 18.8657
1 3.75717 16.8765 19.6461
2 3.76865 17.2792 21.5132
1 5.62281 16.9749 21.8397
1 3.76732 17.0515 23.4156
2 5.67499 17.0497 23.8349
1 5.66975 15.1536 24.2391
1 5.65397 17.0546 25.8161
2 5.63848 15.15 26.2228
1 3.73824 15.1825 26.6481
1 5.61539 15.1425 28.2221
2 3.74964 18.9722 -0.245642
1 3.74988 20.7258 0.583755
2 3.72922 21.1371 2.44048
1 5.57108 20.7817 2.73501
1 3.68788 20.9412 4.33883
2 5.61587 20.8636 4.7274
1 5.6215 18.959 5.15098
1 5.65245 20.8628 6.69809
2 5.63656 18.9639 7.1295
1 3.72513 18.9818 7.51087
1 5.64005 18.9616 9.08554
2 3.74592 18.937 9.48494
1 3.74754 20.8288 9.91013
1 3.82692 18.8988 11.4767
2 3.74623 20.8189 11.8895
1 5.64068 20.8132 12.3299
1 3.7564 20.8087 13.8834
2 5.6504 20.8298 14.2924
1 5.6613 18.7358 14.9201
1 5.62298 20.9466 16.2252
2 5.64686 19.21 16.7659
1 3.79983 18.8213 17.0724
1 5.64382 18.9073 18.6508
2 3.7481 18.9058 19.0708
1 3.75566 20.8552 19.4088
1 3.75216 19.0388 21.0089
2 3.75491 20.8936 21.4332
1 5.66962 20.8597 21.8542
1 3.75615 20.8512 23.4159
2 5.66497 20.8487 23.8228
1 5.67573 18.9589 24.2206
1 5.57293 20.8919 25.8243
2 5.66236 18.9667 26.1859
1 3.74783 18.9446 26.5358
1 5.63312 18.9478 28.1682
2 3.71333 22.6717 0.156994
1 3.76963 24.6313 0.19421
1 3.59829 22.9544 2.0407
2 4.11664 24.7252 1.97966
1 5.64805 24.6576 2.92545
2 5.91549 24.6461 4.81592
1 5.55416 22.7945 5.10959
1 5.65456 24.6421 6.70706
2 5.62379 22.7456 7.12079
1 3.73171 22.724 7.56266
1 5.64961 22.7415 9.1029
2 3.74373 22.7266 9.52866
1 3.72512 24.6265 9.88921
1 3.77587 22.729 11.4916
2 3.77787 24.6469 11.8743
1 5.64026 24.6558 12.2603
1 3.74633 24.6523 13.8838
2 5.61032 24.6645 14.2619
1 5.61818 22.7639 14.6487
1 5.64106 24.6683 16.2396
2 5.60212 22.8004 16.6643
1 3.72684 22.7755 17.0712
1 5.62111 22.7532 18.6867
2 3.72893 22.7612 19.0527
1 3.75061 24.6643 19.46
1 3.74639 22.7607 21.0285
2 3.74508 24.668 21.4376
1 5.65607 24.6702 21.8451
1 3.75298 24.6431 23.4184
2 5.65538 24.6399 23.8196
1 5.66205 22.7409 24.2407
1 5.59107 24.6036 25.8178
2 5.88193 22.7485 26.1547
1 5.45139 22.7026 28.0354
2 7.55929 -0.0439753 -0.0651988
1 7.61811 1.88458 0.336079
1 7.52355 -0.0596232 1.91118
2 7.55282 1.83575 2.33719
1 9.44415 1.82675 2.74959
1 7.53654 1.82387 4.31912
2 9.447 1.85219 4.72248
1 9.46893 -0.0454962 5.12705
1 9.46094 1.8532 6.71039
2 9.45331 -0.05291 7.1118
1 7.54509 -0.0600369 7.50279
1 9.45219 -0.0416043 9.09674
2 7.54968 -0.0570935 9.50009
1 7.51057 1.83639 9.92858
1 7.57167 -0.069588 11.5182
2 7.53007 1.83922 11.8988
1 9.4737 1.84691 12.2499
1 7.64491 1.8279 13.8417
2 9.50557 1.86798 14.2701
1 9.52878 0.00737338 14.7277
1 9.45604 1.84884 16.2935
2 9.48064 -0.0586866 16.6581
1 7.58814 -0.118797 17.0327
1 9.49655 -0.151775 18.6268
2 7.57353 -0.0693047 19.042
1 7.5721 1.83359 19.4486
1 7.56478 -0.064609 21.0405
2 7.60074 1.85065 21.4435
1 9.47464 1.79722 21.8257
1 7.58495 1.89464 23.4764
2 9.49413 1.88988 23.8022
1 9.46454 0.0454527 24.2783
1 9.5465 1.95474 25.8541
2 9.46797 -0.038653 26.2062
1 7.56447 -0.0826021 26.6008
1 9.45272 -0.0821334 28.1696
2 7.28785 3.74316 0.0346413
1 7.60875 5.60059 0.337304
1 7.54148 3.74119 1.92962
2 7.55499 5.64708 2.33764
1 9.43653 5.65617 2.7363
1 7.5464 5.64959 4.3195
2 9.45209 5.64522 4.71484
1 9.439 3.74789 5.12472
1 9.42366 5.6533 6.69334
2 9.41027 3.75996 7.11469
1 7.53735 3.74316 7.51935
1 9.42357 3.73519 9.12634
2 7.53374 3.74188 9.50722
1 7.54754 5.64727 9.91055
1 7.50989 3.73625 11.4986
2 7.54137 5.64751 11.8919
1 9.44211 5.66491 12.3059
1 7.54248 5.71392 13.8961
2 9.44701 5.66918 14.2847
1 9.45529 3.74121 14.6543
1 9.42262 5.57896 16.2262
2 9.44406 3.71992 16.6594
1 7.53495 3.72045 17.0621
1 9.44401 3.7557 18.6394
2 7.54642 3.74386 19.0491
1 7.56699 5.65804 19.4456
1 7.59355 3.76247 21.0311
2 7.56656 5.64596 21.4533
1 9.60666 5.67112 22.0165
1 7.46207 5.63027 23.4163
2 9.24001 5.67008 23.8799
1 9.53119 3.79981 24.1033
1 9.53243 5.56369 25.8093
2 9.12428 3.75127 25.8901
1 7.56243 3.74949 26.8017
2 7.55315 7.52539 -0.065769
1 7.56168 9.43838 0.342356
1 7.54741 7.53785 1.91307
2 7.58633 9.44349 2.3312
1 9.46227 9.44405 2.74266
1 7.55639 9.44773 4.33806
2 9.45974 9.44748 4.72507
1 9.44738 7.54676 5.11875
1 9.47031 9.44274 6.70829
2 9.46582 7.54224 7.10521
1 7.54961 7.55188 7.50979
1 9.45994 7.53667 9.08231
2 7.55255 7.54733 9.49544
1 7.57574 9.45279 9.89262
1 7.57666 7.55781 11.4915
2 7.58207 9.45385 11.8376
1 9.59919 9.44073 12.3528
1 7.45643 9.49 13.7902
2 9.21959 9.44093 14.1425
1 9.52953 7.7887 14.8854
2 9.43372 7.33535 16.7361
1 7.54384 7.7097 17.0267
1 9.42923 7.5373 18.6241
2 7.5406 7.56911 19.0612
1 7.54619 9.45992 19.4499
1 7.57655 7.53625 21.0431
2 7.5516 9.44721 21.4363
1 9.45794 9.47874 21.8294
1 7.55286 9.42252 23.4228
2 9.45447 9.41894 23.8258
1 9.51607 7.49779 24.2401
1 9.44373 9.4238 25.8055
2 9.46501 7.51616 26.2215
1 7.55603 7.51417 26.6016
1 9.44622 7.5442 28.1961
2 7.59222 11.3519 -0.0617646
1 7.56128 13.2662 0.356142
1 7.58256 11.3491 1.91837
2 7.58891 13.2681 2.33569
1 9.45893 13.2688 2.73613
1 7.56278 13.2651 4.34717
2 9.46414 13.2666 4.72332
1 9.45468 11.352 5.12473
1 9.41586 13.2716 6.70147
2 9.43943 11.3539 7.10622
1 7.54174 11.3452 7.50725
1 9.43639 11.3732 9.09701
2 7.53677 11.3685 9.50017
1 7.49193 13.2944 9.89809
1 7.58651 11.3538 11.485
2 7.54985 13.2611 11.8784
1 9.44279 13.2572 12.31
1 7.54012 13.1874 13.8887
2 9.46256 13.2157 14.2782
1 9.5504 11.0848 14.8981
1 9.4024 13.3149 16.2107
2 9.4292 11.5671 16.7368
1 7.5298 11.2438 17.0418
1 9.46719 11.4188 18.6411
2 7.55415 11.3485 19.0674
1 7.54207 13.2454 19.4278
1 7.52421 11.3559 21.0398
2 7.53068 13.2535 21.4279
1 9.45077 13.2467 21.859
1 7.52811 13.2253 23.4068
2 9.42248 13.1954 23.8507
1 9.44368 11.3238 24.2344
1 9.43092 13.2266 25.8497
2 9.45618 11.3256 26.2131
1 7.5547 11.3433 26.5944
1 9.45996 11.3399 28.1935
2 7.52362 15.1527 -0.0651856
1 7.58255 17.0486 0.364024
1 7.53351 15.2019 1.94058
2 7.90745 17.0472 2.27077
1 9.68385 17.0457 2.95252
1 7.33505 17.0504 4.10057
2 9.10679 17.0472 4.77504
1 9.43963 15.1958 5.12481
1 9.3694 17.0323 6.68854
2 9.43466 15.1487 7.13296
1 7.38517 15.1379 7.69495
1 9.52901 15.1596 9.08438
2 7.75996 15.1472 9.56814
1 7.46859 17.005 9.89948
1 7.46907 15.187 11.4825
2 7.78808 17.0455 11.7909
1 9.54803 17.0621 12.2937
1 7.38551 17.0023 13.6495
2 9.42915 17.0108 14.2477
1 9.44492 15.1514 14.6311
1 9.41666 17.0214 16.2686
2 9.42528 15.159 16.6507
1 7.50054 15.1643 17.0575
1 9.48547 15.0746 18.6367
2 7.56941 15.1408 19.0614
1 7.56327 17.0367 19.4384
1 7.55964 15.1456 21.0367
2 7.53246 17.0455 21.4228
1 9.45589 17.0132 21.8284
1 7.58853 17.128 23.4116
2 9.44219 16.8049 23.7358
1 9.43552 15.056 24.2625
1 9.44785 17.2667 25.5911
2 9.43344 15.17 26.2057
1 7.54631 15.1802 26.6152
1 9.4326 15.18 28.1958
2 7.51016 18.9477 -0.0424608
1 7.51017 20.8445 0.351743
1 7.49978 18.8899 1.94758
2 7.50794 20.8173 2.33195
1 9.42513 20.8237 2.72765
1 7.52283 20.8567 4.30901
2 9.43994 20.8233 4.71448
1 9.46129 18.8941 5.10965
1 9.43888 20.8297 6.69426
2 9.45045 18.9374 7.11926
1 7.5477 18.9423 7.49738
1 9.43515 18.9228 9.12184
2 7.52428 18.9279 9.48485
1 7.53615 20.8337 9.90226
1 7.46652 18.8927 11.487
2 7.47682 20.8386 11.8697
1 9.31751 20.819 12.2748
1 7.55578 20.8858 13.9297
2 9.4391 20.6062 14.1643
1 9.42005 18.8563 14.7022
1 9.57488 21.0996 16.0123
2 9.43374 18.9395 16.6404
1 7.51715 18.9237 17.0426
1 9.43577 18.9759 18.5988
2 7.55168 18.9372 19.0554
1 7.58395 20.8589 19.4207
1 7.54118 18.946 21.0345
2 7.55343 20.8445 21.4222
1 9.46279 20.8595 21.8392
1 7.61847 20.8561 23.4484
2 9.47099 20.8643 23.706
1 9.45858 20.8402 25.564
2 9.44906 19.0106 26.4066
1 7.56243 18.9983 26.6269
1 9.43896 18.9582 28.2851
2 7.50973 22.7361 -0.0492921
1 7.47608 24.6284 0.353422
1 7.45276 22.7385 1.92398
2 7.5632 24.6417 2.353
1 9.46732 24.6476 2.69089
1 7.67619 24.6428 4.3214
2 9.51248 24.6422 4.72226
1 9.45997 22.7313 5.12576
1 9.4587 24.6438 6.70586
2 9.44397 22.7378 7.109
1 7.54074 22.7531 7.50219
1 9.45012 22.7338 9.10253
2 7.54841 22.7435 9.49142
1 7.57922 24.6471 9.92145
1 7.56335 22.7544 11.4804
2 7.54906 24.6283 11.8889
1 9.71915 24.5772 12.5432
1 7.47359 24.5983 13.8432
2 9.1905 24.9068 14.2643
1 9.62843 24.3108 15.9419
2 9.22129 22.7332 16.7855
1 7.45728 22.7618 17.1323
1 9.68407 22.8511 18.55
2 7.54206 22.757 19.0749
1 7.57145 24.6341 19.4505
1 7.57352 22.7409 21.0314
2 7.55785 24.6349 21.4385
1 9.46432 24.6563 21.8955
1 7.58813 24.5627 23.4456
2 9.45148 24.8828 23.7819
1 9.44383 24.4349 25.6165
2 9.50029 22.6811 26.4128
1 7.64443 22.7066 26.6653
1 9.45532 22.7324 28.3008
2 11.358 -0.00691019 -0.0707742
1 11.2697 1.93955 0.324596
1 11.3568 -0.0282413 1.89807
2 11.3318 1.83094 2.37591
1 13.2505 1.87842 2.76401
1 11.3674 1.88153 4.35937
2 13.2558 1.86202 4.74137
1 13.2338 -0.0637506 5.09018
1 13.3067 1.76269 6.67342
2 13.2616 -0.0861059 7.1012
1 11.3631 -0.0386044 7.5133
1 13.3024 0.0109657 9.10835
2 11.3681 -0.027972 9.47554
1 11.4006 1.87001 9.87868
1 11.369 -0.0785387 11.4627
2 11.3691 1.83618 11.8703
1 13.261 1.82791 12.3115
1 11.3706 1.83794 13.8574
2 13.247 1.81401 14.3034
1 13.2731 -0.140943 14.662
1 13.2351 1.81769 16.2675
2 13.2535 -0.0842513 16.6605
1 11.3478 -0.0960348 17.0649
1 13.2135 -0.121941 18.6429
2 11.3515 0.166613 18.9708
1 11.3493 1.9252 19.4725
1 11.3566 -0.237238 20.8464
2 11.3566 1.84051 21.4131
1 13.2433 1.82027 21.8319
1 11.3636 1.82532 23.3844
2 13.2469 1.89415 23.8161
1 13.2319 0.0394651 24.2597
1 13.2007 1.89605 25.8345
2 13.2595 -0.0562554 26.1912
1 11.3617 -0.120878 26.6116
1 13.2948 0.0356618 28.1673
2 11.7261 3.74201 0.286604
1 11.2655 5.54233 0.309193
1 11.3482 3.73988 2.07054
2 11.308 5.65651 2.32782
1 13.2413 5.59466 2.60657
1 11.3579 5.65895 4.29639
2 13.251 5.65617 4.49188
1 13.2827 3.96619 5.36711
2 12.9708 3.47058 7.10393
1 11.2714 3.82449 7.56134
1 13.5315 3.69291 8.8372
2 11.3368 3.75201 9.49898
1 11.4005 5.62224 9.8901
1 11.3702 3.74452 11.4633
2 11.348 5.64695 11.8799
1 13.2502 5.61035 12.2836
1 11.3277 5.6616 13.8625
2 13.2384 5.60022 14.2705
1 13.2404 3.72885 14.6826
1 13.2455 5.6262 16.2841
2 13.2763 3.7296 16.6598
1 11.3561 3.7288 17.0493
1 13.2642 3.7474 18.6304
2 11.3536 3.77081 19.017
1 11.3463 5.65493 19.3624
1 11.3512 3.76917 21.0285
2 11.344 5.64706 21.2436
1 13.0747 5.64637 22.0377
2 13.4602 5.64811 23.9057
1 13.1889 3.78439 24.2283
1 13.1806 5.59622 25.8206
2 13.4932 3.73989 26.1241
1 13.2907 3.69805 28.0321
2 11.3351 7.51204 -0.0576342
1 11.3511 9.44137 0.345918
1 11.3514 7.5275 1.90529
2 11.3541 9.43938 2.32827
1 13.2463 9.40718 2.76076
1 11.3651 9.41193 4.3281
2 13.2535 9.42323 4.73598
1 13.2518 7.37386 5.31409
1 13.2725 9.5322 6.67711
2 13.2722 7.76865 7.18107
1 11.3998 7.45552 7.48672
1 13.2591 7.56582 9.07447
2 11.3547 7.50965 9.4665
1 11.3646 9.43911 9.7738
1 11.3651 7.54917 11.4485
2 11.3597 9.44512 11.6398
1 13.0443 9.49383 12.5339
2 13.5106 9.17059 14.2806
1 13.186 7.45646 14.7078
1 13.2138 9.65225 16.0259
2 13.2221 7.5466 16.6493
1 11.3096 7.66288 17.0436
1 13.247 7.56901 18.5979
2 11.345 7.53364 19.0233
1 11.344 9.36572 19.4794
1 11.3499 7.52845 21.0355
2 11.3462 9.46438 21.4203
1 13.2331 9.46758 21.8337
1 11.3461 9.46702 23.3978
2 13.2392 9.42204 23.8248
1 13.1762 7.49746 24.2334
1 13.2555 9.43464 25.8026
2 13.2254 7.52986 26.2202
1 11.3448 7.54636 26.6256
1 13.2303 7.53381 28.2012
2 11.3551 11.3443 -0.0594341
1 11.3417 13.2427 0.33874
1 11.3711 11.3499 1.93003
2 11.3677 13.2595 2.32468
1 13.2922 13.3222 2.7203
1 11.3543 13.2481 4.30217
2 13.2401 13.2842 4.71512
1 13.259 11.37 5.07584
1 13.2525 13.2653 6.68512
2 13.248 11.3935 7.09739
1 11.3404 11.38 7.49675
1 13.244 11.3568 9.09128
2 11.3416 11.3649 9.46399
1 11.3521 13.2517 9.89933
1 11.3405 11.3362 11.4454
2 11.3392 13.2288 11.8768
1 13.2354 13.2538 12.2906
1 11.3734 13.1259 13.8813
2 13.2338 13.4825 14.1891
1 13.2271 13.0751 16.0563
2 13.2271 11.3546 16.8607
1 11.3096 11.2794 17.1008
1 13.2016 11.4772 18.7351
2 11.329 11.1226 19.0027
1 11.3423 11.5221 20.8536
2 11.3587 13.2554 21.6225
1 13.2675 13.3072 21.8307
1 11.3398 13.2253 23.4903
2 13.2104 13.25 23.8614
1 13.2519 11.337 24.22
1 13.2298 13.2375 25.8243
2 13.2482 11.3364 26.2122
1 11.3548 11.3316 26.616
1 13.2601 11.3778 28.2081
2 11.343 15.1295 -0.0887816
1 11.3471 17.0479 0.258977
1 11.3532 15.1553 1.88655
2 11.4097 17.0411 2.14125
1 13.158 17.0144 2.90822
2 13.4665 17.0422 4.81449
1 13.1764 15.1937 5.11018
1 13.2382 17.0491 6.70714
2 13.2458 15.1493 7.10763
1 11.3552 15.1512 7.48804
1 13.2594 15.1515 9.08703
2 11.3909 15.1543 9.5002
1 11.357 17.0606 9.92165
1 11.3652 15.1406 11.4946
2 11.4043 17.0679 11.8898
1 13.2603 17.0556 12.3007
1 11.3723 17.0864 13.9003
2 13.2662 17.1366 14.293
1 13.2312 15.2474 14.6856
1 13.2288 17.0879 16.2794
2 13.2289 15.1216 16.6072
1 11.3511 15.1144 17.0578
1 13.2192 15.0464 18.599
2 11.3557 15.3731 18.96
1 11.3389 17.1266 19.4805
1 11.3402 14.9814 20.8327
2 11.3627 17.0109 21.4166
1 13.2689 16.9369 21.8291
1 11.3045 17.0851 23.397
2 13.2245 17.0063 23.8294
1 13.1894 15.1469 24.2267
1 13.2254 17.044 25.8364
2 13.1786 15.1428 26.198
1 11.3103 15.1672 26.6069
1 13.2522 15.1392 28.1944
2 11.3687 18.9591 -0.0691092
1 11.3505 20.8461 0.337418
1 11.3826 18.9341 1.90464
2 11.3391 20.8379 2.32483
1 13.2474 20.8588 2.73964
1 11.3375 20.8387 4.30556
2 13.2408 20.8287 4.71611
1 13.1828 18.9015 5.09882
1 13.2497 20.8323 6.69009
2 13.2325 18.9479 7.10804
1 11.3356 18.9387 7.51443
1 13.2414 18.9418 9.08497
2 11.3524 18.9463 9.49493
1 11.3377 20.8468 9.89368
1 11.4226 19.0135 11.5068
2 11.0848 20.8777 11.7812
1 11.3042 20.9373 13.6963
2 12.883 20.8859 14.5916
1 13.325 19.0809 14.669
1 13.1426 20.9213 16.4029
2 13.255 18.9722 16.6946
1 11.3341 18.9839 17.0354
1 13.2646 18.8956 18.6578
2 11.3457 18.9455 19.0399
1 11.3533 20.7519 19.5075
1 11.3657 18.9421 21.1302
2 11.3487 20.8753 21.443
1 13.2249 20.8896 21.8565
1 11.3285 20.9484 23.4427
2 13.2188 20.6301 23.7467
1 13.2435 18.8647 24.2384
1 13.2707 21.0189 25.6136
2 13.2463 18.9714 26.197
1 11.3427 19.0285 26.6162
1 13.2678 18.9368 28.1852
2 11.3548 22.7522 -0.004892
1 11.3736 24.6655 0.325278
1 11.3481 22.7475 1.94452
2 11.3559 24.6602 2.30428
1 13.2489 24.6773 2.68227
1 11.3567 24.6459 4.29156
2 13.211 24.6354 4.70731
1 13.2412 22.7363 5.12038
1 13.2547 24.6392 6.70326
2 13.2492 22.7359 7.1009
1 11.3453 22.7308 7.49521
1 13.246 22.7311 9.07816
2 11.3564 22.7367 9.46052
1 11.3856 24.6475 9.82189
1 11.4525 22.7272 11.4698
2 11.4412 24.627 11.6927
1 13.2769 24.6689 12.5275
2 13.2461 24.6017 14.3801
1 13.3288 22.7213 14.6644
1 13.1727 24.5924 16.239
2 13.4893 22.7723 16.6254
1 13.0011 22.8635 18.457
2 11.3679 22.5247 19.212
1 11.3577 22.8793 20.9971
2 11.3545 24.6457 21.6642
1 13.2481 24.6491 21.9026
1 11.3553 24.5055 23.5366
2 13.2834 24.8745 23.7818
1 13.269 24.4849 25.6321
2 13.2562 22.7503 26.4034
1 11.3574 22.7126 26.6647
1 13.2495 22.7369 28.2739
2 15.121 -0.293958 -0.116559
1 15.1437 0.102417 1.75871
2 15.1488 1.84388 2.52537
1 17.0367 1.87132 2.7875
1 15.1516 1.89764 4.40435
2 17.0476 1.83147 4.74739
1 17.1264 -0.115145 5.07941
1 17.0079 1.74492 6.67379
2 17.0543 -0.101039 7.09365
1 15.1617 -0.0859206 7.51626
1 17.05 -0.062389 9.10511
2 15.171 -0.291135 9.40338
1 15.1199 0.0639572 11.2833
2 15.1394 1.79839 12.0972
1 17.0494 1.82288 12.2321
1 15.172 1.84057 13.9665
2 17.0672 1.88441 14.1105
1 17.0193 0.0688906 14.8561
2 17.0523 -0.302761 16.7439
1 15.1725 -0.0188073 17.0492
1 17.0455 -0.0225775 18.6223
2 15.1308 -0.05476 19.0473
1 15.1331 1.84331 19.4406
1 15.1352 -0.0583302 21.0295
2 15.1366 1.83641 21.4235
1 17.036 1.84745 21.8342
1 15.1735 1.82069 23.4322
2 17.037 2.11033 23.7213
1 17.0536 1.81539 25.6009
2 17.0391 0.273392 26.535
1 15.2189 -0.158936 26.6014
1 16.9967 0.0271237 28.3429
2 15.1642 3.97567 -0.179862
1 15.1344 5.72707 0.332972
1 15.1054 3.55753 1.68324
2 15.1407 5.6132 2.25256
1 17.0268 5.60588 2.63577
1 15.1367 5.62764 4.22386
2 17.0229 5.659 4.5127
1 17.0031 3.96406 5.36944
2 17.3239 3.46152 7.09808
1 16.7563 3.69799 8.82495
2 15.1484 3.97402 9.6569
1 15.1397 5.74578 9.95952
1 15.1455 3.58796 11.4347
2 15.1288 5.64892 11.8874
1 17.0384 5.62579 12.2008
1 15.1639 5.60941 13.8509
2 17.0494 5.58581 14.0809
1 17.0609 3.73989 14.914
2 17.0483 3.75177 16.7771
1 15.2086 3.74628 17.0474
1 17.0455 3.74462 18.6493
2 15.1455 3.7431 19.0676
1 15.1187 5.63729 19.4638
1 15.1146 3.75002 21.0556
2 15.1237 5.64286 21.4522
1 17.0591 5.65416 21.8079
1 15.2237 5.65766 23.4022
2 17.0921 5.71649 23.8157
1 17.0713 3.8707 24.2189
1 17.0599 5.67549 25.846
2 17.1098 3.74649 26.1691
1 15.2697 3.71691 26.5888
1 17.0231 3.63438 28.2091
2 15.1405 7.57978 -0.0683351
1 15.1408 9.44071 0.318731
1 15.147 7.5469 1.95084
2 15.1485 9.41039 2.33634
1 17.053 9.41597 2.75835
1 15.1489 9.38008 4.33449
2 17.0465 9.42001 4.73493
1 17.0406 7.37851 5.31728
1 17.0226 9.5312 6.679
2 17.0213 7.7678 7.18475
1 15.1483 7.36151 7.4871
1 17.0361 7.58471 9.08486
2 15.1458 7.57328 9.52099
1 15.1135 9.44764 9.90188
1 15.0754 7.58857 11.5461
2 15.0831 9.47321 11.9054
1 16.9717 9.41039 12.2959
1 15.234 9.48051 13.8846
2 17.1198 9.43524 14.2617
1 17.0582 7.35527 14.8701
1 17.0927 9.54456 16.2188
2 17.0338 7.79293 16.734
1 15.1598 7.52337 17.0223
1 17.0298 7.51458 18.6251
2 15.1344 7.52942 19.0417
1 15.1511 9.4421 19.3993
1 15.1066 7.5292 21.0291
2 15.145 9.4022 21.4286
1 17.0606 9.45783 21.8355
1 15.1452 9.43848 23.4214
2 17.0532 9.47414 23.8224
1 17.0628 7.57522 24.2352
1 17.0207 9.46704 25.8001
2 17.0472 7.56949 26.2185
1 15.13 7.52257 26.6
1 17.05 7.56809 28.1914
2 15.1375 11.3747 -0.0384317
1 15.186 13.4465 0.54625
1 15.1421 11.2619 1.90727
2 15.1539 13.0207 2.41127
1 17.0171 13.3403 2.71169
1 15.1481 13.2817 4.30987
2 17.0529 13.2763 4.71298
1 17.0351 11.3669 5.0744
1 17.0488 13.2634 6.69177
2 17.0445 11.3919 7.10096
1 15.1485 11.3712 7.52078
1 17.0516 11.3429 9.10803
2 15.1448 11.3505 9.49718
1 15.148 13.2499 9.89767
1 15.1012 11.3364 11.4799
2 15.1322 13.234 11.8703
1 17.0234 13.2267 12.2579
1 15.0912 13.1705 13.8718
2 16.9854 13.2468 14.2562
1 17.0818 11.3545 14.6464
1 17.0326 13.2548 16.242
2 17.0304 11.3991 16.6584
1 15.1276 11.3631 17.1378
1 17.0811 11.4632 18.6641
2 15.1592 11.3988 19.0973
1 15.1878 13.4255 19.6987
1 15.1775 11.261 21.0225
2 15.178 13.0129 21.5483
1 17.1359 13.272 22.0401
1 15.0522 13.2689 23.4173
2 16.8042 13.2497 23.9275
1 17.1055 11.403 24.2132
1 17.1245 13.2862 25.8131
2 17.0078 11.364 26.2209
1 15.1456 11.4053 26.6254
1 17.0131 11.3842 28.2435
2 15.195 15.1468 -0.278297
1 15.1401 16.8391 0.572227
2 15.0559 17.2731 2.43977
1 16.9248 16.9485 2.71483
1 15.2314 17.0499 4.33099
2 17.1308 17.0511 4.69351
1 17.1183 15.1712 5.11228
1 17.0862 17.0575 6.68285
2 17.053 15.1581 7.10269
1 15.1499 15.1646 7.49555
1 17.0483 15.1422 9.08529
2 15.1518 15.1541 9.49924
1 15.1524 17.0603 9.92432
1 15.1379 15.1465 11.493
2 15.1369 17.0799 11.8874
1 17.0262 17.0641 12.2881
1 15.1479 17.0675 13.8742
2 17.0302 17.0699 14.2849
1 17.019 15.1533 14.6564
1 17.0584 17.056 16.2734
2 17.0501 15.1426 16.6208
1 15.1268 15.1285 16.9812
1 17.069 15.0666 18.6157
2 15.1437 15.126 18.8536
1 15.1513 16.8624 19.6362
2 15.1307 17.2733 21.5071
1 16.9955 16.9675 21.7743
1 15.1458 16.998 23.409
2 17.0214 17.0061 23.8099
1 17.1533 15.0914 24.2126
1 17.1268 16.9781 25.798
2 16.8482 15.1387 26.1085
1 15.0619 15.1369 26.5237
1 17.1961 15.1516 27.9878
2 15.1567 18.9231 -0.0462562