1699
Atoms. Timestep: 996
2 26.9685 26.9606 28.6502
1 -0.467708 1.48607 0.330183
1 -0.483414 -0.465559 1.8959
2 26.8596 1.49077 2.30476
1 1.30355 1.48747 2.81079
1 -0.532958 1.48647 4.32178
2 1.46025 1.48791 4.73756
1 1.46282 -0.47397 5.1064
1 1.42749 1.48449 6.69604
2 1.38208 26.9444 7.07861
1 26.929 26.9472 7.49056
1 1.42759 -0.489474 9.09574
2 -0.480585 26.9472 9.49265
1 -0.491509 1.48193 9.89804
1 -0.491427 -0.47914 11.468
2 26.8753 1.48199 11.8768
1 1.29995 1.4962 12.3826
1 -0.522169 1.48207 13.9211
2 1.4553 1.48479 14.3113
1 1.47189 -0.46653 14.6819
1 1.45531 1.48134 16.2711
2 1.47178 -0.462879 16.6595
1 26.9443 26.9996 17.0477
1 1.47852 -0.473879 18.6329
2 26.9572 26.9873 19.0111
1 -0.44825 1.5437 19.4214
1 -0.440469 -0.289468 20.9389
2 26.9965 1.58642 21.4355
1 1.50543 1.50011 21.8651
1 -0.423025 1.48822 23.4278
2 1.50857 1.47859 23.8556
1 1.5024 26.952 24.2807
1 1.48764 1.48241 25.8345
2 1.49387 26.9505 26.2534
1 -0.453686 26.9568 26.6774
1 1.4925 -0.47126 28.2319
2 26.9614 3.44356 -0.0829946
1 26.9562 5.40505 0.32072
1 -0.467843 3.44477 1.88739
2 26.9843 5.40852 2.28766
1 1.49463 5.42076 2.70048
1 -0.433464 5.39433 4.27393
2 1.50087 5.40637 4.68418
1 1.47704 3.44321 5.10227
1 1.46348 5.40495 6.65443
2 1.46922 3.45069 7.07354
1 26.9481 3.44952 7.4922
1 1.47305 3.43585 9.04659
2 26.951 3.43362 9.47101
1 26.9481 5.38444 9.88087
1 -0.487815 3.43753 11.4512
2 -0.481274 5.37705 11.8605
1 1.34744 5.39929 12.3812
1 26.9582 5.3389 13.9352
2 1.47292 5.39878 14.3177
1 1.45935 3.43667 14.6589
1 1.47456 5.41173 16.273
2 1.47405 3.44555 16.6165
1 -0.449785 3.4378 16.9964
1 1.35725 3.45686 18.5551
2 26.9382 3.47787 19.0303
1 27.0094 5.43672 19.395
1 -0.458699 3.48374 21.0071
2 26.9539 5.43411 21.3687
1 1.44021 5.42444 21.787
1 -0.379465 5.41012 23.3238
2 1.43843 5.41032 23.8742
1 1.48113 3.44645 24.2737
1 1.4411 5.40516 25.8399
2 1.48054 3.4402 26.2498
1 26.9587 3.43287 26.6732
1 1.48519 3.45616 28.2298
2 -0.498184 7.37286 -0.0707875
1 -0.478839 9.32893 0.329269
1 -0.462531 7.37092 1.89612
2 -0.468744 9.32365 2.30325
1 1.48014 9.3464 2.71865
1 26.9576 9.30621 4.27897
2 1.48575 9.32334 4.68896
1 1.4746 7.36613 5.08819
1 1.4577 9.32062 6.65689
2 1.44662 7.36388 7.05736
1 -0.491865 7.33455 7.47365
1 1.43214 7.3491 9.03815
2 26.9296 7.3313 9.45893
1 -0.485095 9.25821 9.83456
1 26.9163 7.31815 11.4563
2 -0.505193 9.23005 11.8281
1 1.39812 9.29517 12.2527
1 26.8578 9.32902 13.8291
2 1.3374 9.32976 14.2717
1 1.45259 7.37212 14.6773
1 1.41425 9.33422 16.2521
2 1.49613 7.37419 16.646
1 26.9997 7.36693 17.0084
1 1.50674 7.43198 18.6215
2 -0.379021 7.3918 19.0316
1 26.9528 9.35071 19.4378
1 26.9789 7.38719 21.0018
2 26.9777 9.33525 21.4226
1 1.46835 9.33429 21.8407
1 -0.436098 9.32476 23.4245
2 1.4665 9.33272 23.8505
1 1.43819 7.36832 24.2804
1 1.45557 9.33315 25.8315
2 1.37743 7.37393 26.2529
1 26.9163 7.37104 26.6728
1 1.41623 7.38519 28.2703
2 -0.46246 11.2758 -0.0916867
1 26.9974 13.2345 0.28914
1 26.9602 11.2738 1.88216
2 -0.45754 13.2304 2.24816
1 1.49257 13.2303 2.63378
1 -0.334874 13.2394 4.18386
2 1.49077 13.2447 4.70608
1 1.48922 11.2842 5.10333
1 1.48181 13.2412 6.6718
2 1.48049 11.2705 7.07376
1 26.9482 11.2466 7.46137
1 1.47092 11.2818 9.04043
2 26.9511 11.263 9.42799
1 -0.444156 13.2533 9.52517
1 26.9549 11.1034 11.3521
1 1.35242 13.2564 12.5653
1 26.7195 13.1045 14.3755
2 1.39705 13.223 14.4265
1 1.39453 11.2792 14.7153
1 1.43886 13.2343 16.3499
2 1.31795 11.2822 16.6915
1 26.804 11.2735 17.132
1 1.4039 11.2935 18.6779
2 -0.469666 11.3291 19.1379
1 26.9678 13.2682 19.4806
1 -0.425702 11.2927 21.0755
2 -0.457464 13.2575 21.4419
1 1.44944 13.2629 21.8183
1 26.9743 13.244 23.4298
2 1.41903 13.2495 23.8506
1 1.4673 11.2945 24.2701
1 1.49249 13.2524 25.8269
2 1.47564 11.2911 26.2433
1 26.9637 11.2821 26.6637
1 1.47988 11.2714 28.2248
2 26.9923 15.1969 28.6813
1 27.0226 17.1566 0.340723
1 26.9944 15.1961 1.91603
2 -0.379434 17.1663 2.31277
1 1.49562 17.166 2.73353
1 27.009 17.1978 4.34447
2 1.49226 17.1766 4.72811
1 1.48783 15.2038 5.11889
1 1.48139 17.1842 6.68995
2 1.47733 15.2194 7.08525
1 26.9558 15.2445 7.47522
1 1.47535 15.2321 9.05836
2 26.955 15.2448 9.44586
1 -0.463468 17.2458 9.83228
1 -0.468986 15.4041 11.3763
2 26.9603 17.2928 11.8312
1 1.44298 17.2218 12.2296
1 26.9638 17.2462 13.8282
2 1.3984 17.1747 14.2725
1 1.40146 15.1892 14.7043
1 1.46374 17.1624 16.2447
2 1.53033 15.2035 16.6751
1 -0.343146 15.1578 17.1688
1 1.5161 15.2203 18.6804
2 26.9802 15.2091 19.1044
1 26.9661 17.1526 19.4608
1 26.9865 15.2201 21.0689
2 -0.460142 17.1504 21.4534
1 1.50389 17.1414 21.865
1 26.9792 17.1546 23.4258
2 1.50276 17.1648 23.8413
1 1.49721 15.2101 24.2648
1 1.53183 17.1682 25.8161
2 1.57333 15.2123 26.2411
1 -0.280058 15.2099 26.7481
1 1.53593 15.2123 28.2789
2 -0.328587 19.1242 -0.0782736
1 26.9865 21.0926 0.332422
1 26.9999 19.1346 1.89321
2 -0.462883 21.0966 2.30715
1 1.48455 21.0824 2.71793
1 -0.461715 21.0951 4.28592
2 1.48952 21.0866 4.6943
1 1.48739 19.1428 5.1166
1 1.4802 21.0961 6.67028
2 1.47789 19.1434 7.08524
1 -0.467425 19.172 7.48977
1 1.47637 19.1713 9.0576
2 -0.471131 19.174 9.45934
1 -0.465877 21.114 9.87769
1 26.9669 19.1898 11.4386
2 -0.447616 21.1112 11.8721
1 1.49299 21.0923 12.2916
1 26.982 21.1148 13.8623
2 1.49502 21.0889 14.273
1 1.47822 19.1352 14.6906
1 1.49495 21.0843 16.2492
2 1.4905 19.1219 16.6611
1 26.9648 19.1438 17.0792
1 1.50147 19.0783 18.6323
2 -0.459248 19.0886 19.0485
1 26.9814 21.0074 19.42
1 -0.463938 19.076 21.0381
2 26.8916 20.968 21.441
1 1.38115 21.0273 21.9066
1 -0.344971 21.077 23.4037
2 1.56401 21.0832 23.8649
1 1.52397 19.1242 24.2491
1 1.4844 21.0884 25.84
2 1.54816 19.1282 26.2249
1 27.0718 19.1315 26.6128
1 1.5484 19.1196 28.2268
2 -0.462896 23.0567 28.6519
1 -0.448764 25.0117 0.334099
1 -0.466208 23.0522 1.89531
2 26.9561 25.0057 2.30682
1 1.48356 24.9835 2.7193
1 26.9568 24.9973 4.28152
2 1.48397 24.9918 4.6922
1 1.49052 23.0378 5.10151
1 1.4543 24.9837 6.6637
2 1.48123 23.0381 7.0821
1 26.9555 23.0441 7.49814
1 1.48087 23.0338 9.05663
2 -0.469905 23.0483 9.47526
1 26.9494 24.9886 9.89723
1 26.9615 23.0444 11.4591
2 26.9471 24.9912 11.8747
1 1.45771 24.9626 12.2796
1 26.9521 25.0123 13.8579
2 1.4625 25.0037 14.2664
1 1.47431 23.0457 14.6852
1 1.45332 25.0124 16.2431
2 1.40496 23.0473 16.6564
1 26.9589 23.0225 17.063
1 1.4425 23.0344 18.6925
2 -0.468208 23.0129 19.0493
1 26.953 25.0083 19.1153
1 -0.47373 22.8429 20.9722
1 1.66594 25.0367 21.9799
1 26.9707 25.0202 23.8016
2 1.52177 25.0047 23.9027
1 1.50158 23.0455 24.2613
1 1.51066 24.9957 25.8633
2 1.46872 23.0411 26.2452
1 26.9652 23.0784 26.6707
1 1.46889 23.0242 28.2383
2 3.442 -0.502925 -0.127575
1 3.43583 1.47834 -0.033745
1 3.44945 26.7675 1.80132
1 5.59957 1.54957 2.76754
1 3.44623 1.49298 4.64441
2 5.42928 1.50905 4.69023
1 5.41674 -0.470841 4.73512
1 5.4636 1.67092 6.61248
1 3.25311 -0.545195 7.53527
1 5.39142 -0.494433 9.42783
2 3.4167 -0.508159 9.46213
1 3.43 1.45276 9.46784
1 3.35014 26.7781 11.3894
1 5.59878 1.47852 12.3771
1 3.43613 1.49616 14.1997
2 5.43495 1.48884 14.3028
1 5.38948 27.0099 14.6401
1 5.42386 1.4897 16.2921
2 5.39208 -0.394414 16.6705
1 3.43313 26.9714 17.0727
1 5.39614 -0.497867 18.6433
2 3.43676 26.8852 19.0434
1 3.43717 1.31886 19.5482
1 3.46973 -0.490527 21.0754
2 3.44994 1.47031 21.4895
1 5.39602 1.42989 21.8679
1 3.44826 1.4158 23.4658
2 5.40726 1.34171 23.8416
1 5.43559 26.8925 24.266
1 5.40043 1.37006 25.8833
2 5.40306 26.8941 26.2631
1 3.44123 -0.522225 26.6415
1 5.39759 -0.494104 28.2373
2 3.43908 3.4639 -0.125836
1 3.42673 5.4699 0.282228
1 3.44121 3.63667 1.79782
2 3.44654 5.50925 2.29587
1 5.40706 5.42653 2.70583
1 3.44006 5.41985 4.27015
2 5.4045 5.41878 4.67357
1 5.41774 3.50156 5.06212
1 5.39649 5.43702 6.66565
2 5.39789 3.54685 7.08014
1 3.43526 3.46058 7.41327
1 5.39124 3.4401 9.05967
2 3.43115 3.4346 9.35918
1 3.40635 5.41352 9.46061
1 3.44456 3.43238 11.2333
1 5.59539 5.33238 12.3863
1 3.44666 5.36871 14.2168
2 5.44117 5.28258 14.3133
1 5.4388 3.39858 14.6646
1 5.43009 5.31167 16.329
2 5.34977 3.4043 16.6674
1 3.41758 3.42342 16.7293
1 5.53189 3.41111 18.6186
1 3.36232 5.60099 19.4993
1 3.41691 3.43398 21.3996
2 3.32446 5.42371 21.4221
1 5.1991 5.42144 21.5185
1 3.25623 5.45439 23.3747
1 5.40336 3.18789 24.3513
1 5.40181 5.15767 26.1534
2 5.40001 3.27535 26.3021
1 3.4314 3.43139 26.6427
1 5.3995 3.40115 28.2649
2 3.4004 7.39952 28.6779
1 3.4091 9.33694 0.320389
1 3.39866 7.40826 1.92351
2 3.43729 9.34488 2.30448
1 5.40405 9.32408 2.72039
1 3.43943 9.32181 4.2789
2 5.40432 9.23757 4.686
1 5.37906 7.34692 5.06238
1 5.41286 9.27387 6.70492
2 5.3824 7.3612 7.04184
1 3.37457 7.39026 7.4073
1 5.21903 7.3737 8.96267
2 3.33238 7.376 9.39751
1 3.37417 9.32722 9.78194
1 3.39021 7.48752 11.3369
2 3.3819 9.3216 11.8338
1 5.35887 9.33135 11.9325
1 3.21795 9.33693 13.77
1 5.42481 7.13838 14.7675
1 5.40408 9.12482 16.5619
2 5.40501 7.23224 16.7085
1 3.44336 7.37083 17.0582
1 5.38867 7.34202 18.6696
2 3.4386 7.47937 19.0442
1 3.41968 9.37883 19.4518
1 3.40636 7.43882 21.0518
2 3.38229 9.3697 21.4382
1 5.29092 9.41499 21.7961
1 3.37357 9.35752 23.4407
2 5.26384 9.39664 23.8221
1 5.33664 7.53257 23.9742
1 5.36242 9.49745 25.7942
1 3.24583 7.38278 26.7463
1 5.37317 7.38552 28.6522
2 3.41678 11.2824 -0.097261
1 3.41857 13.2406 0.289671
1 3.43759 11.28 1.8816
2 3.43993 13.2365 2.24685
1 5.40987 13.1955 2.34815
1 3.31604 13.2431 4.18371
1 5.41368 11.1017 5.19246
1 5.38883 13.2443 7.02634
2 5.40374 11.2602 7.12295
1 3.44284 11.2528 7.46017
1 5.40159 11.2772 9.08783
2 3.42815 11.2809 9.42083
1 3.41916 13.2607 9.52996
1 3.38357 11.1632 11.3564
1 5.64562 13.3381 12.4102
1 3.3974 13.2589 14.2677
2 5.34537 13.3106 14.2918
1 5.39204 11.4437 14.3954
1 5.55673 13.4205 16.2195
1 3.22187 11.2661 17.151
1 5.37807 11.3152 18.9645
2 3.39491 11.3099 19.0789
1 3.39444 13.242 19.4263
1 3.36724 11.317 21.0543
2 3.41738 13.2471 21.4038
1 5.40263 13.2637 21.4633
1 3.27178 13.2615 23.3388
1 5.33001 11.26 24.3006
1 5.34557 13.3071 26.199
2 5.36005 11.3843 26.2664
1 3.4137 11.3025 26.65
1 5.35762 11.2586 28.2471
2 3.44587 15.2137 28.667
1 3.44365 17.1774 0.336592
1 3.44045 15.2042 1.90026
2 3.3714 17.1698 2.30775
1 5.2301 17.1905 2.80914
1 3.40112 17.1927 4.33745
2 5.38251 17.2644 4.73966
1 5.37608 15.3912 5.19164
1 5.35249 17.2294 6.73679
2 5.36986 15.234 7.11526
1 3.42471 15.2392 7.46569
1 5.36983 15.2533 9.08666
2 3.41908 15.2501 9.4322
1 3.39779 17.239 9.82093
1 3.40069 15.3972 11.3603
2 3.423 17.2713 11.8271
1 5.40752 17.203 11.9159
1 3.24872 17.1739 13.762
1 5.34732 15.1891 14.7031
1 5.44365 17.1887 16.6263
2 5.33127 15.2975 16.6698
1 3.4295 15.2231 17.0554
1 5.37553 15.1943 18.6491
2 3.43923 15.1829 19.0477
1 3.46474 17.109 19.4309
1 3.44638 15.1766 21.0347
2 3.45645 17.0662 21.4501
1 5.41628 17.1605 21.8631
1 3.45762 17.1773 23.4256
2 5.41564 17.2774 23.8401
1 5.39252 15.4155 24.3525
1 5.40015 17.2451 25.8679
2 5.32151 15.2724 26.2909
1 3.44276 15.2437 26.6762
1 5.36742 15.2466 28.3071
2 3.47211 19.1233 28.6393
1 3.43301 21.0662 0.318384
1 3.43796 19.1281 1.89365
2 3.4395 21.0671 2.30103
1 5.39886 21.0842 2.70756
1 3.43789 21.0749 4.27516
2 5.40119 21.0765 4.67727
1 5.38628 19.1578 5.09562
1 5.38974 21.0701 6.67157
2 5.36887 19.1485 7.08721
1 3.42017 19.1629 7.48443
1 5.36871 19.1565 9.06715
2 3.42117 19.1606 9.4593
1 3.43551 21.0901 9.87105
1 3.43259 19.1659 11.4503
2 3.44616 21.0836 11.8709
1 5.40739 21.0653 12.2655
1 3.44426 21.0869 13.8553
2 5.39856 21.1466 14.2405
1 5.40966 19.2435 14.7112
1 5.40278 20.9809 16.204
2 5.41824 19.0985 16.6878
1 3.4516 19.0877 17.0436
1 5.4132 19.1691 18.6672
2 3.45353 19.0914 19.0126
1 3.41191 21.0651 19.1044
1 3.46124 18.9333 20.9453
1 5.62285 21.0952 21.9541
1 3.49545 21.0925 23.7868
2 5.46884 21.0992 23.8905
1 5.43769 19.1667 24.2608
1 5.41586 21.0965 25.8688
2 5.41957 19.1633 26.2542
1 3.46932 19.1445 26.649
1 5.4105 19.1425 28.2324
2 3.39388 23.011 28.6392
1 3.41236 24.9387 0.286628
1 3.4186 23.0001 1.89343
2 3.43977 24.894 2.30005
1 5.3994 24.9586 2.68718
1 3.44466 24.9733 4.27668
2 5.40802 24.973 4.64814
1 5.40684 22.9873 5.05792
1 5.41261 24.8112 6.57794
2 5.40478 22.9496 7.08466
1 3.44021 23.0169 7.4881
1 5.40231 23.011 9.05582
2 3.4408 23.0164 9.45993
1 3.42225 24.9364 9.84457
1 3.43339 23.0045 11.4515
2 3.40177 24.9 11.8551
1 5.33458 25.0179 12.2134
1 3.39438 25.0052 13.84
2 5.29431 25.045 14.212
1 5.37523 23.0755 14.3163
1 5.36479 25.1785 16.149
1 3.2602 23.1056 17.139
1 5.3319 23.0264 19.0867
2 3.39064 23.0384 19.0819
1 3.43617 25.0135 19.4535
1 3.3958 23.2012 21.0201
2 3.5455 25.0662 21.4817
1 5.44759 24.9716 21.8744
1 3.5116 24.9935 23.4888
2 5.43651 24.9679 23.8676
1 5.42344 23.0331 24.2664
1 5.38299 24.9746 25.8534
2 5.28218 23.036 26.242
1 3.39341 23.019 26.6482
1 5.30331 23.0425 28.2645
2 7.36004 -0.461549 -0.0836993
1 7.38419 1.48533 0.32821
1 7.38733 -0.459592 1.89745
2 7.47588 1.49945 2.30281
1 9.36434 1.50523 2.72486
1 7.42719 1.49381 4.3164
2 9.35443 1.49111 4.70727
1 9.34025 -0.473066 5.10465
1 9.31954 1.48875 6.6764
2 9.38873 26.9499 7.07367
1 7.52653 26.944 7.58014
1 9.34546 26.9498 9.10089
2 7.36805 26.9322 9.5179
1 7.36273 1.44223 9.90478
1 7.40543 26.9326 11.4916
2 7.47696 1.44834 11.8968
1 9.37067 1.43532 12.287
1 7.44098 1.48053 13.9108
2 9.35798 1.54023 14.2795
1 9.33602 -0.382335 14.7247
1 9.32898 1.34131 16.2327
2 9.24812 26.8452 16.6823
1 7.34581 26.9064 17.0693
1 9.27368 26.92 18.7057
2 7.34671 -0.521042 19.0528
1 7.36119 1.4123 19.4261
1 7.33699 26.9069 21.0303
2 7.35016 1.37114 21.4407
1 9.30376 1.46524 21.8407
1 7.35585 1.42666 23.4179
2 9.30814 1.45418 23.8188
1 9.29821 26.9873 24.2241
1 9.31987 1.46023 25.8375
2 9.32086 -0.404251 26.2605
1 7.36496 26.9377 26.676
1 9.32307 26.9886 28.2377
2 7.36843 3.43615 28.6529
1 7.35471 5.3948 0.341166
1 7.40396 3.45035 1.89401
2 7.37477 5.39987 2.31316
1 9.33321 5.3847 2.721
1 7.3738 5.40532 4.2795
2 9.33355 5.40316 4.68834
1 9.32439 3.45001 5.11023
1 9.31475 5.40371 6.6603
2 9.22893 3.4495 7.08492
1 7.33888 3.4684 7.50768
1 9.26572 3.40629 9.10242
2 7.3421 3.34357 9.49608
1 7.35868 5.22087 9.99738
1 7.41644 3.37402 11.5051
2 7.46625 5.382 11.9223
1 9.36313 5.42852 12.2612
1 7.43689 5.36806 13.9184
2 9.35716 5.44824 14.2395
1 9.38119 3.47406 14.3326
1 9.31933 5.59463 16.1631
1 7.27136 3.37756 17.086
1 9.35964 3.40716 19.004
2 7.43851 3.41113 19.0376
1 7.39054 5.3935 19.0992
1 7.31978 3.24087 20.9694
1 9.55203 5.28082 21.9074
1 7.5743 5.29957 23.734
2 9.46295 5.25139 23.8525
1 9.35456 3.34255 24.2318
1 9.38788 5.16778 25.8031
2 9.33976 3.32222 26.274
1 7.37017 3.37399 26.684
1 9.33275 3.42618 28.2416
2 7.36547 7.35331 28.7601
1 7.36065 9.30975 0.334004
1 7.37682 7.35957 1.97348
2 7.37442 9.31105 2.31463
1 9.34312 9.32281 2.72789
1 7.37635 9.31199 4.28511
2 9.33811 9.31957 4.69433
1 9.36298 7.35863 5.06795
1 9.33874 9.3086 6.66707
2 9.35697 7.35116 7.02998
1 7.37496 7.3596 7.13109
1 9.5118 7.31052 8.95382
1 7.401 9.52295 9.97049
1 7.37203 7.37288 11.8341
2 7.29812 9.35432 11.9014
1 9.21964 9.36794 12.3181
1 7.49235 9.40741 13.8493
2 9.40217 9.36707 14.2744
1 9.33132 7.43615 14.6254
1 9.31043 9.3535 16.2643
2 9.29315 7.46219 16.6457
1 7.35365 7.37992 17.0473
1 9.28644 7.37068 18.6371
2 7.34091 7.37705 19.015
1 7.31078 9.38052 19.387
1 7.29975 7.55933 20.9389
2 7.20692 9.4538 21.3874
1 9.09401 9.39518 21.55
1 7.11928 9.37979 23.3349
1 9.40071 7.13532 23.9548
1 9.28339 9.48554 26.1418
1 7.36031 7.33836 26.8919
1 9.35957 7.32303 28.6519
2 7.26296 11.2645 -0.0990723
1 7.36715 13.1995 0.270764
1 7.37211 11.2472 1.88933
2 7.39718 13.1409 2.27189
1 9.40783 13.2338 2.69586
1 7.56562 13.2076 4.20772
2 9.43455 13.2491 4.71177
1 9.32721 11.2981 5.13664
1 9.58377 13.2587 6.78368
2 9.29444 11.2246 7.08463
1 7.36473 11.3112 7.49624
1 9.32476 11.2755 9.04298
2 7.36672 11.3914 9.48636
1 7.36493 13.2872 9.90082
1 7.37895 11.3663 11.5167
2 7.47384 13.2937 11.8818
1 9.33902 13.2774 12.317
1 7.41994 13.265 14.186
2 9.39247 13.2645 14.2801
1 9.37961 11.3138 14.6967
1 9.18148 13.2831 16.2849
2 9.42065 11.2441 16.6711
1 7.54884 11.4916 17.1262
1 9.36442 11.2597 18.6852
2 7.37273 11.2878 19.0459
1 7.37847 13.275 19.2654
1 7.3576 11.3626 20.9961
2 7.37573 13.2807 21.3502
1 9.33852 13.2732 21.7675
1 7.51557 13.3143 23.3052
2 9.37601 13.3531 23.8135
1 9.26237 11.4654 24.2724
1 9.3293 13.2144 25.7901
2 9.30833 11.3472 26.234
1 7.29478 11.3223 26.6206
1 9.14399 11.3192 28.1651
2 7.36075 15.1991 28.6489
1 7.36014 17.1774 -0.0297576
1 7.35384 15.0185 1.84352
1 9.51459 17.1535 2.82315
1 7.36299 17.2023 4.64466
2 9.34487 17.177 4.73641
1 9.29201 15.2019 5.10595
1 9.33061 17.1988 6.69171
2 9.29103 15.2888 7.04433
1 7.30505 15.2155 7.44452
1 9.1452 15.1969 8.95449
2 7.28034 15.2287 9.47709
1 7.36457 17.178 9.86174
1 7.40451 15.2358 11.4686
2 7.39604 17.1823 11.8346
1 9.38578 17.1862 12.2591
1 7.55522 17.1636 13.7658
2 9.42265 17.1652 14.278
1 9.35499 15.2235 14.672
1 9.33046 17.1786 16.2691
2 9.38503 15.2715 16.6306
1 7.32592 15.0381 17.0054
1 9.14507 15.2843 18.539
2 7.27133 15.2562 19.0467
1 7.33774 17.1919 19.4614
1 7.36145 15.2102 20.9935
2 7.37113 17.1789 21.4398
1 9.33084 17.222 21.8247
1 7.37261 17.2055 23.4139
2 9.35285 17.2247 23.7864
1 9.36417 15.2802 23.8765
1 9.32687 17.3207 25.7343
1 7.18762 15.2054 26.7247
1 9.34266 15.2246 28.5913
2 7.35441 19.1569 -0.124701
1 7.32713 21.1455 0.292813
1 7.37346 19.3123 1.80551
2 7.3596 21.1826 2.30607
1 9.32899 21.1109 2.72078
1 7.36604 21.0945 4.27434
2 9.32413 21.0872 4.69116
1 9.30605 19.1369 5.07568
1 9.31471 21.0878 6.66851
2 9.30197 19.1452 7.04325
1 7.30168 19.1459 7.46107
1 9.14077 19.1359 8.97032
2 7.2683 19.1351 9.47616
1 7.34975 21.0882 9.8954
1 7.37296 19.13 11.4552
2 7.36152 21.0837 11.8758
1 9.31472 21.0814 12.2842
1 7.36097 21.0736 13.8614
2 9.32471 20.9808 14.2494
1 9.33793 19.0996 14.6923
1 9.35185 21.0628 16.2679
2 9.33465 19.1291 16.6801
1 7.37992 19.1497 17.0859
1 9.33356 19.1528 18.6583
2 7.37513 19.1502 19.0609
1 7.42034 21.108 19.4824
1 7.38336 19.1339 21.0345
2 7.49398 21.0737 21.4647
1 9.38235 21.0526 21.8534
1 7.44605 21.0856 23.4782
2 9.38168 21.0778 23.8185
1 9.36776 19.1396 24.1902
1 9.36092 20.9577 25.7537
2 9.33883 19.1371 26.2794
1 7.37867 19.1769 26.6387
1 9.30741 19.1247 28.2531
2 7.21352 23.0757 28.677
1 7.33085 25.0241 0.326091
1 7.3305 23.0793 1.91813
2 7.36308 25.0187 2.3052
1 9.32933 25.0149 2.71728
1 7.3681 24.9969 4.27697
2 9.32758 24.9971 4.69265
1 9.3261 23.04 5.10542
1 9.32135 24.9886 6.66768
2 9.32292 23.0383 7.08487
1 7.36577 23.0146 7.49993
1 9.3226 23.0607 9.06112
2 7.35898 23.0349 9.47629
1 7.33394 24.9845 9.86473
1 7.35472 23.0393 11.458
2 7.34312 24.99 11.8346
1 9.32561 24.996 11.9187
1 7.17386 25.0171 13.7588
1 9.30939 22.8561 14.7309
1 9.36538 24.9037 16.5479
2 9.11502 22.9886 16.5968
1 7.40598 23.022 17.2785
1 9.74614 22.9846 18.3517
2 7.22924 23.0232 19.1515
1 7.38163 24.9436 19.4697
1 7.45416 23.0306 21.0675
2 7.37793 24.9806 21.4642
1 9.29337 25.0364 21.8603
1 7.37114 24.9848 23.461
2 9.30121 25.0193 23.8354
1 9.35942 23.0448 23.8964
1 9.32666 25.1664 25.7685
1 7.13908 23.0702 26.733
1 9.10458 23.0741 28.5215
2 11.2858 -0.363772 28.6513
1 11.2903 1.52494 0.332052
1 11.2861 27.0161 1.93698
2 11.3047 1.51024 2.31908
1 13.256 1.4683 2.68294
1 11.3005 1.49686 4.29486
2 13.2507 1.46222 4.64446
1 13.2192 -0.53313 5.02403
1 13.2252 1.30633 6.56721
2 13.2234 26.8532 7.02732
1 11.2652 -0.492006 7.46035
1 13.0985 -0.47358 8.97059
2 11.229 26.9636 9.48923
1 11.2804 1.4777 9.89152
1 11.3105 26.9531 11.4713
2 11.2885 1.47292 11.8865
1 13.2175 1.52313 12.28
1 11.2944 1.48537 13.8907
2 13.2257 1.51347 14.255
1 13.2637 26.9453 14.3498
1 13.2459 1.67904 16.1735
1 11.113 26.9211 17.1879
1 13.2306 26.9321 19.0124
2 11.2547 -0.496268 19.1182
1 11.2797 1.45565 19.4554
1 11.2242 26.9664 21.0859
2 11.2618 1.46753 21.4427
1 13.1931 1.46496 21.8359
1 11.2541 1.47548 23.4242
2 13.1463 1.49898 23.8542
1 13.2139 -0.431846 24.2789
1 13.2416 1.50345 25.848
2 13.2349 -0.419135 26.2718
1 11.2805 27.0079 26.6791
1 13.2458 26.9971 28.2486
2 11.2986 3.44575 -0.0783794
1 11.3093 5.36709 0.3357
1 11.2981 3.44691 1.91463
2 11.2884 5.38418 2.31874
1 13.2441 5.42011 2.67617
1 11.293 5.39559 4.28837
2 13.2363 5.43189 4.64231
1 13.2483 3.44537 4.73998
1 13.2847 5.58248 6.56747
1 11.0995 3.44011 7.58177
1 13.25 3.46279 9.41972
2 11.262 3.41521 9.5107
1 11.2964 5.33728 9.85058
1 11.2484 3.4134 11.4873
2 11.2898 5.31322 11.8757
1 13.218 5.41823 12.2896
1 11.2856 5.43516 13.8649
2 13.2189 5.44971 14.2691
1 13.2199 3.52021 14.6456
1 13.2435 5.4588 16.2449
2 13.3237 3.56099 16.6455
1 11.4539 3.47617 17.1359
1 13.2685 3.44386 18.6674
2 11.3157 3.40477 19.0715
1 11.2961 5.33338 19.4196
1 11.3519 3.38739 21.0475
2 11.4018 5.28256 21.4324
1 13.2653 5.3648 21.8761
1 11.3811 5.35644 23.4806
2 13.2812 5.38895 23.8787
1 13.2342 3.43322 24.2818
1 13.2885 5.39187 25.8567
2 13.2564 3.44459 26.2596
1 11.3042 3.40718 26.6792
1 13.26 3.44712 28.2352
2 11.3355 7.26393 28.7027
1 11.3285 9.14071 0.429535
1 11.3259 7.31109 1.97378
2 11.3019 9.30114 2.35433
1 13.2575 9.33903 2.71686
1 11.2969 9.32962 4.31692
2 13.257 9.35778 4.68257
1 13.2645 7.42626 5.04844
1 13.2655 9.35419 6.66106
2 13.2822 7.4561 7.05918
1 11.3533 7.33418 7.41675
1 13.2952 7.36032 9.04588
2 11.3914 7.29959 9.41906
1 11.3197 9.26107 9.51813
1 11.3264 7.18078 11.3566
1 13.4475 9.34299 12.3725
1 11.3301 9.35045 14.2029
2 13.295 9.34131 14.3047
1 13.2317 7.39811 14.6527
1 13.2759 9.33297 16.2751
2 13.2317 7.3885 16.6216
1 11.2244 7.35985 17.0037
1 13.0613 7.3318 18.5415
2 11.1888 7.31245 19.0048
1 11.2556 9.28172 19.1115
1 11.2875 7.15627 20.9389
1 13.3912 9.28974 21.9711
1 11.4944 9.30407 23.7779
2 13.3729 9.3054 23.9195
1 13.3096 7.34563 24.2979
1 13.3197 9.31234 25.884
2 13.3664 7.35214 26.2698
1 11.4948 7.34294 26.7707
1 13.3293 7.34205 28.2823
1 11.3463 13.4296 0.418348
1 11.3137 11.2824 2.26573
2 11.335 13.2633 2.35434
1 13.2718 13.2408 2.72856
1 11.3344 13.2799 4.34502
2 13.2697 13.2574 4.71369
1 13.2843 11.3211 5.12545
1 13.0135 13.2581 6.79602
2 13.2931 11.2514 7.08237
1 11.2948 11.4321 7.4931
1 13.2683 11.2508 9.04756
2 11.2952 11.1576 9.46409
1 11.2935 13.1061 9.55532
1 11.2805 11.4869 11.354
2 11.2844 13.3222 11.8702
1 13.213 13.251 12.2611
1 11.3044 13.2391 13.8822
2 13.2317 13.2443 14.2694
1 13.2385 11.288 14.66
1 13.2657 13.2546 16.2482
2 13.2487 11.2947 16.629
1 11.2848 11.3232 17.0207
1 13.1014 11.2725 18.5698
2 11.2402 11.2216 19.055
1 11.2761 13.1535 19.4947
1 11.2962 11.4133 20.9996
2 11.2232 13.3316 21.452
1 13.0828 13.2617 21.9569
1 11.2592 13.2294 23.4873
2 13.2186 13.1865 23.9043
1 13.2914 11.2633 24.2589
1 13.2484 13.1774 25.9083
2 13.2848 11.2516 26.2301
1 11.2945 11.2851 26.3059
1 13.4498 11.2662 28.1559
2 11.3263 15.2931 28.6894
1 11.3088 17.1678 0.363319
1 11.3646 15.2452 1.98129
2 11.3995 17.1641 2.3539
1 13.2971 17.1695 2.73899
1 11.3578 17.1591 4.35251
2 13.2891 17.1726 4.7104
1 13.3328 15.1946 5.10905
1 13.2925 17.1943 6.67065
2 13.2952 15.2861 7.0445
1 11.2966 15.1188 7.22307
1 13.4376 15.1974 8.95721
1 11.3061 17.1969 10.0778
1 11.2951 15.2125 11.798
2 11.3103 17.1854 11.9574
1 13.25 17.1698 12.2773
1 11.3236 17.162 13.9209
2 13.2557 17.1608 14.2691
1 13.2798 15.2064 14.6498
1 13.2566 17.1705 16.2467
2 13.286 15.2171 16.6104
1 11.3134 15.1974 16.707
1 13.43 15.2811 18.5355
1 11.2836 17.3697 19.5378
1 11.3029 15.2717 21.406
2 11.2863 17.2296 21.4679
1 13.2516 17.1987 21.8506
1 11.3429 17.2484 23.4311
2 13.2429 16.8723 23.7379
1 13.247 15.1097 24.3376
1 13.2566 17.5127 25.4978
2 13.3564 15.0632 26.2749
1 11.527 15.3098 26.7472
1 13.3266 15.2267 28.2585
2 11.2564 19.0496 28.7097
1 11.2703 20.9154 0.437941
1 11.2913 19.0867 1.9792
2 11.2946 21.0734 2.36286
1 13.2533 21.0872 2.7258
1 11.2905 21.0552 4.31813
2 13.2587 21.0792 4.69379
1 13.3019 19.1372 5.07544
1 13.2619 21.0824 6.67187
2 13.2841 19.1389 7.03936
1 11.2947 19.1389 7.14331
1 13.4392 19.1036 8.96596
1 11.2741 21.2628 9.98155
1 11.2872 19.1604 11.8663
2 11.2662 21.1236 11.9194
1 13.2081 21.0649 12.2837
1 11.2673 21.0985 13.8921
2 13.2097 21.0316 14.2491
1 13.2331 19.1064 14.6777
1 13.1845 21.0623 16.232
2 13.2303 19.1177 16.6563
1 11.2816 19.1361 17.0887
1 13.237 19.1564 18.6293
2 11.2922 19.2435 19.0658
1 11.3156 21.1187 19.552
1 11.3145 19.1681 21.0908
2 11.3063 21.073 21.5017
1 13.2502 21.1002 21.8546
1 11.356 21.0609 23.4539
2 13.2603 21.3876 23.7446
1 13.2684 20.7293 25.4948
2 13.2194 19.1218 26.4464
1 11.2882 19.1139 26.7424
1 13.2303 19.1152 28.3416
1 11.2915 25.1925 0.41315
1 11.2978 23.0511 2.25951
2 11.291 25.0326 2.34468
1 13.2495 24.9973 2.70444
1 11.2825 25.0074 4.30537
2 13.2485 24.9658 4.67367
1 13.2481 23.0233 5.09281
1 13.2396 24.9509 6.65874
2 13.2468 23.0205 7.08105
1 11.2828 23.0407 7.49988
1 13.252 23.0241 9.05767
2 11.2891 23.1301 9.47243
1 11.3178 25.0238 9.86543
1 11.2867 23.0927 11.4916
2 11.3109 25.0111 11.8404
1 13.3122 24.9693 12.2315
1 11.4647 24.9705 13.7611
2 13.3308 24.9654 14.2212
1 13.2916 22.9564 14.6187
1 13.149 24.7272 16.1404
2 13.5375 22.9049 16.5368
1 12.9474 23.0132 18.3366
2 11.3301 23.05 19.2969
1 11.2786 24.9834 19.5645
1 11.297 23.0535 21.181
2 11.1873 25.0363 21.5246
1 13.0618 25.0416 21.9859
1 11.2269 25.0508 23.5104
2 13.215 25.0781 23.9157
1 13.2889 23.1612 24.293
1 13.2329 25.0866 25.9056
2 13.4041 23.1981 26.2208
1 11.5654 22.9282 26.3421
1 13.4751 23.017 28.1403
2 15.2036 26.9589 28.6496
1 15.2164 1.49083 0.323029
1 15.2094 26.9539 1.88511
2 15.2086 1.48555 2.29421
1 17.1641 1.49599 2.70341
1 15.2054 1.48218 4.26816
2 17.1623 1.48891 4.67603
1 17.1631 26.9476 5.01175
1 17.1811 1.48404 6.64468
2 17.1668 26.9418 6.95687
1 15.1844 -0.506216 7.07126
1 17.1478 26.9404 8.82879
1 15.237 1.68718 10.0053
1 15.2075 -0.469258 11.8179
2 15.1159 1.529 11.9313
1 16.9822 1.5367 12.4044
1 15.1463 1.53411 13.9359
2 17.1312 1.51471 14.3314
1 17.174 -0.457761 14.6952
1 17.1796 1.50375 16.292
2 17.273 -0.461392 16.6678
1 15.393 26.9792 17.1313
1 17.2267 -0.513836 18.68
2 15.2097 26.9343 19.0566
1 15.1643 1.48129 19.4135
1 15.239 -0.337804 20.9879
2 15.1798 1.53552 21.4212
1 17.1554 1.4989 21.4533
1 15.0249 1.49181 23.3548
1 17.1509 26.7701 24.4084
1 17.183 1.51803 26.2011
2 17.0955 -0.410781 26.3019
1 15.1922 -0.451273 26.6774
1 17.1607 26.9544 28.2474
2 15.2069 3.4527 -0.0829064
1 15.214 5.4082 0.320507
1 15.1884 3.44382 1.88549
2 15.1797 5.41068 2.28415
1 17.0986 5.40745 2.67024
1 15.172 5.41861 4.26996
2 17.0629 5.41664 4.6869
1 17.1487 3.45221 5.09734
1 17.1684 5.42358 6.65668
2 17.2605 3.45864 7.07002
1 15.3908 3.46571 7.5904
1 17.2241 3.5043 9.08621
2 15.2327 3.55844 9.52704
1 15.2148 5.45597 9.90859
1 15.1976 3.52931 11.5343
2 15.1187 5.45157 11.9029
1 16.9874 5.4418 12.4178
1 15.1464 5.45538 13.9199
2 17.127 5.42973 14.3567
1 17.1368 3.47589 14.7116
1 17.1478 5.42309 16.3378
2 17.1967 3.45971 16.671
1 15.2008 3.47657 17.0458
1 17.0178 3.42191 18.5893
2 15.1447 3.37807 19.0608
1 15.2168 5.24237 19.5653
1 15.1915 3.41808 21.0857
2 15.1507 5.35305 21.4942
1 17.1398 5.64476 21.684
1 15.2096 5.34886 23.4598
2 17.0756 5.51516 23.8757
1 17.1649 3.63941 24.3629
1 17.1581 5.47877 25.8773
2 17.163 3.49797 26.2993
1 15.2122 3.4586 26.6714
1 17.1536 3.48344 28.2686
2 15.2474 7.36961 -0.0734468
1 15.2517 9.33058 0.330874
1 15.2098 7.37552 1.89404
2 15.2102 9.32915 2.30234
1 17.1608 9.32323 2.71538
1 15.2108 9.35046 4.27651
2 17.1591 9.33708 4.68908
1 17.1383 7.381 5.09623
1 17.155 9.33984 6.66212
2 17.1717 7.38673 7.06968
1 15.2265 7.39758 7.48127
1 17.169 7.39499 9.04556
2 15.2306 7.39137 9.47671
1 15.2431 9.336 9.89392
1 15.2158 7.39311 11.4713
2 15.3186 9.33918 11.8799
1 17.2136 9.32967 12.306
1 15.2783 9.32966 13.9011
2 17.2032 9.31548 14.3063
1 17.1858 7.37145 14.7154
1 17.1926 9.32513 16.2916
2 17.1723 7.37476 16.7419
1 15.2252 7.38603 16.7787
1 17.319 7.3882 18.8903
1 15.2343 9.23297 19.6569
1 15.3197 7.30338 21.3625
2 15.2239 9.23827 21.5436
1 17.1517 9.07 21.6829
1 15.2694 9.33878 23.5114
2 17.1236 9.34267 23.8863
1 17.153 7.40742 24.2619
1 17.203 9.34179 25.8448
2 17.1877 7.40178 26.2624
1 15.257 7.38144 26.671
1 17.1771 7.38544 28.2497
2 15.3183 11.2851 -0.0838476
1 15.2352 13.2445 0.326134
1 15.222 11.286 1.88976
2 15.2048 13.2406 2.30876
1 17.1395 13.2347 2.70908
1 15.2072 13.238 4.30631
2 17.145 13.2443 4.69174
1 17.155 11.2879 5.09921
1 17.178 13.242 6.66236
2 17.1676 11.2904 7.07496
1 15.2163 11.3148 7.4863
1 17.1645 11.2902 9.05233
2 15.2182 11.2873 9.47516
1 15.2133 13.2376 9.88908
1 15.2142 11.2887 11.4566
2 15.1101 13.2436 11.8668
1 16.9783 13.2497 12.3869
1 15.1437 13.2296 13.8838
2 17.1367 13.2341 14.316
1 17.2017 11.2761 14.6727
1 17.1508 13.2368 16.2785
2 17.2048 11.2798 16.6312
1 15.2209 11.2768 16.7221
1 17.3643 11.2821 18.5531
1 15.2618 13.4765 19.1722
1 15.2899 11.118 21.4266
1 17.2837 13.2794 21.9054
1 15.181 13.2499 23.8058
2 17.1071 13.2592 23.8706
1 17.1725 11.3009 24.2557
1 17.1921 13.26 25.8491
2 17.2008 11.2989 26.2357
1 15.2858 11.2845 26.6307
1 17.2028 11.2869 28.2319
2 15.2335 15.2117 28.6647
1 15.2036 17.1646 0.354064
1 15.2153 15.1954 1.90548
2 15.2081 17.1603 2.32298
1 17.1228 17.1555 2.72685
1 15.2185 17.1664 4.3138
2 17.1417 17.1661 4.71063
1 17.1536 15.2005 5.0968
1 17.1689 17.1648 6.66982
2 17.1907 15.2043 7.0608
1 15.2637 15.1939 7.43495
1 17.1885 15.1902 9.04052
2 15.2977 15.1932 9.46801
1 15.2433 17.1531 9.87909
1 15.1848 15.196 11.4466
2 15.1811 17.1523 11.8576
1 17.1011 17.155 12.2461
1 15.177 17.164 13.8515
2 17.0623 17.1606 14.2696
1 17.145 15.1954 14.6791
1 17.1677 17.1721 16.2416
2 17.1839 15.2092 16.648
1 15.2645 15.2515 17.0001
1 17.2012 15.2606 18.6359
2 15.305 15.3627 19.0034
1 15.2347 17.2684 19.4052
1 15.2079 15.4503 20.9562
2 15.2133 17.2939 21.4376
1 17.1545 17.199 21.8759
1 15.1545 17.2026 23.4116
2 17.1316 17.1689 23.8448
1 17.1343 15.2197 24.255
1 17.1125 17.168 25.8231
2 17.1473 15.2172 26.2417
1 15.2189 15.2304 26.6538
1 17.1489 15.2069 28.24
2 15.1767 19.1222 28.7133
1 15.2169 21.0821 0.349208
1 15.2083 19.1312 1.9352
2 15.209 21.0919 2.31733
1 17.1641 21.1085 2.71805
1 15.2151 21.0966 4.2855
2 17.1656 21.0855 4.69071
1 17.1615 19.1333 5.09564
1 17.1867 21.0883 6.661
2 17.196 19.1245 7.06135
1 15.275 19.1352 7.44825
1 17.1974 19.1122 9.0416