1761
Atoms. Timestep: 1449
2 26.9524 -0.503321 -0.132896
1 -0.390308 1.47738 0.225377
1 0.197962 26.798 1.6281
2 -0.217094 1.2753 2.2196
1 1.52619 2.32727 2.72948
1 26.9544 1.4371 4.20341
2 1.50935 1.51165 4.5967
1 1.49635 26.9381 5.11434
1 1.49996 1.48235 6.6438
2 1.51454 -0.466234 7.02712
1 -0.466078 27.0044 7.13978
1 1.66758 -0.476456 8.9187
1 27.0302 1.65 9.93718
1 26.9615 -0.448628 11.8163
2 26.9789 1.52245 11.8759
1 1.4968 1.59955 12.2807
1 -0.321039 1.50678 13.8146
2 1.57343 1.48071 14.2534
1 1.47187 -0.47525 14.6433
1 1.48397 1.45821 16.2379
2 1.45924 26.9541 16.6304
1 26.9494 -0.467429 17.0385
1 1.42012 -0.482329 18.5972
2 -0.484758 26.9629 19.0841
1 -0.492753 1.48532 19.5131
1 -0.463328 26.981 21.0955
2 26.9809 1.51813 21.4858
1 1.44173 1.60869 21.9479
1 -0.43055 1.47927 23.4398
2 1.49134 1.50572 23.9016
1 1.47329 26.968 24.3212
1 1.5241 1.4974 25.8847
2 1.50957 -0.478551 26.2866
1 -0.402992 26.8386 26.7477
1 1.55613 26.9919 28.2266
2 -0.457044 3.45348 -0.188017
1 26.9312 5.43429 0.254666
1 26.9817 3.45307 1.70503
2 26.9072 5.40449 2.26217
1 1.46554 5.41035 2.65372
1 -0.409205 5.37324 4.29742
2 1.48875 5.30279 4.65831
1 1.48805 3.43111 5.14411
1 1.51241 5.36008 6.68735
2 1.50922 3.42907 7.08594
1 -0.436785 3.44642 7.48838
1 1.50478 3.43413 9.05046
2 -0.44723 3.51252 9.46835
1 26.9637 5.38697 9.87451
1 26.952 3.47674 11.4875
2 -0.478961 5.39467 11.8619
1 1.44443 5.35527 12.2183
1 26.963 5.42687 13.8537
2 1.40562 5.38339 14.2451
1 1.47651 3.3972 14.6462
1 1.42787 5.21904 16.1806
2 1.46139 3.34891 16.6477
1 -0.535416 3.42901 17.0655
1 1.29403 3.42921 18.5758
2 26.8737 3.4521 19.09
1 -0.493997 5.4144 19.494
1 -0.475971 3.48212 21.0549
2 26.9523 5.41518 21.4868
1 1.46604 5.45947 21.9222
1 26.9658 5.41881 23.4668
2 1.4823 5.41866 23.9021
1 1.48241 3.4654 24.3375
1 1.5204 5.42062 25.8876
2 1.51312 3.46611 26.3129
1 -0.400707 3.55446 26.7675
1 1.52013 3.46623 28.3006
2 26.9764 7.38199 -0.188388
1 -0.493173 9.36035 0.196711
1 -0.332476 7.43808 1.7532
2 -0.459699 9.34582 2.18266
1 1.51678 9.37158 2.3029
1 26.8312 9.32668 4.12492
1 1.51128 7.18321 5.14473
1 1.46975 9.32519 6.95787
2 1.50845 7.33297 7.07372
1 27.0097 7.36401 7.42312
1 1.48084 7.19632 9.02182
2 -0.394925 7.26517 9.45383
1 26.9516 9.13579 9.95412
1 -0.50272 7.31193 11.4785
2 26.8454 9.30688 11.8873
1 1.24666 9.24718 12.365
1 -0.546113 9.32125 13.9258
2 1.43845 9.3362 14.2752
1 1.46665 7.35826 14.3786
1 1.44822 9.51626 16.1988
1 26.777 7.37666 17.1856
1 1.46608 7.35658 19.0191
2 -0.507168 7.3569 19.115
1 -0.474427 9.28885 19.4869
1 -0.549798 7.34598 21.0856
2 -0.517491 9.27154 21.4958
1 1.39901 9.16334 21.9753
1 26.9346 9.31322 23.4925
2 1.47505 9.29437 23.9132
1 1.48228 7.36296 24.338
1 1.49613 9.29579 25.9127
2 1.49292 7.35871 26.3101
1 -0.459038 7.36183 26.7342
1 1.49526 7.37408 28.2744
2 26.9647 11.3021 28.7092
1 -0.465359 13.2157 0.312465
1 -0.467724 11.2843 1.82856
2 26.9633 13.2536 2.25013
1 1.48484 13.2574 2.65935
1 -0.478346 13.2685 4.22002
2 1.48942 13.3488 4.62703
1 1.532 11.4752 5.09085
1 1.47661 13.3076 6.62947
2 1.50688 11.3092 7.00714
1 -0.483586 11.2952 7.08603
1 1.62434 11.5108 8.88278
1 26.9475 13.423 9.96308
1 26.9493 11.294 11.7964
2 -0.400163 13.2773 11.9037
1 1.4594 13.42 12.3386
1 26.9923 13.2564 13.9404
2 1.50758 13.2938 14.2745
1 1.47607 11.3371 14.6454
1 1.57294 13.2657 16.215
2 1.48592 11.3939 16.673
1 -0.477794 11.2969 17.0657
1 1.41336 11.2857 18.6175
2 26.95 11.2698 19.0915
1 -0.449508 13.1996 19.5925
1 26.8146 11.1689 21.0433
2 -0.484119 13.3031 21.5501
1 1.26449 14.0873 22.0972
1 26.8454 13.2553 23.6095
2 1.47985 13.2773 23.8725
1 1.47498 11.2089 24.3769
1 1.57595 13.1865 25.8665
2 1.50213 11.2661 26.3175
1 26.9796 11.2778 26.7318
1 1.49583 11.2918 28.2929
2 -0.460713 15.2031 28.618
1 26.9592 17.1735 0.29311
1 26.9636 15.2046 1.82435
2 -0.485535 17.1591 2.24655
1 1.45453 17.1547 2.66499
1 26.9454 17.1447 4.23492
2 1.45759 17.1626 4.66119
1 1.45589 15.2366 5.06036
1 1.46111 17.1508 6.66663
2 1.38597 15.2193 7.05991
1 26.9234 15.2045 7.4673
1 1.42432 15.2424 9.07231
2 -0.505177 15.2846 9.45154
1 26.9461 17.1597 9.84193
1 26.9381 15.2462 11.477
2 -0.471893 17.108 11.8899
1 1.49056 17.1698 12.2839
1 -0.468355 17.168 13.8594
2 1.5013 17.1729 14.2594
1 1.4148 15.2425 14.6851
1 1.59527 17.2192 16.2175
2 1.30308 15.2309 16.6704
1 -0.511966 15.9632 17.1067
1 1.34956 15.2206 18.6303
2 26.8719 15.2143 18.9765
1 27.0197 17.2341 19.5082
1 26.8069 15.2643 20.9842
2 27.0712 17.1791 21.4525
1 1.55867 17.2068 21.8425
1 -0.242792 17.1477 23.403
2 1.60012 17.1579 23.9186
1 1.4411 15.2327 24.4321
1 1.61972 17.2426 25.8724
2 1.32942 15.1934 26.3577
1 26.9856 15.9442 26.7577
1 1.50318 15.1911 28.3191
2 26.9523 19.1244 28.708
1 -0.504673 21.0794 0.251091
1 26.9593 19.1021 1.7763
2 26.9562 21.0864 2.32955
1 1.46535 21.0917 2.58946
1 -0.479091 21.8471 4.16413
2 1.32075 21.068 4.61458
1 1.54663 19.0567 5.12454
1 1.42683 21.0802 6.62157
2 1.49407 19.1187 7.06721
1 26.9729 19.0619 7.45116
1 1.48689 19.1207 9.04776
2 26.9617 19.0955 9.42156
1 -0.471383 21.0456 9.52959
1 -0.470276 18.9605 11.3726
1 1.67998 21.0857 12.3612
1 -0.456111 21.0675 14.1981
2 1.52705 21.0841 14.2904
1 1.49902 19.1259 14.6427
1 1.65266 21.0383 16.2281
2 1.54119 19.1289 16.6463
1 27.0382 19.1241 17.02
1 1.52376 19.1654 18.6364
2 -0.365738 19.1428 19.0712
1 26.9949 21.0485 19.5431
1 26.9753 19.1381 21.0963
2 -0.496546 21.0925 21.4876
1 1.42068 21.0901 21.8707
1 26.9266 21.1114 23.4734
2 1.37614 21.1003 23.8986
1 1.47167 19.148 24.2983
1 1.44412 21.0838 25.8819
2 1.47805 19.1475 26.3037
1 26.9537 19.1544 26.7203
1 1.45637 19.1016 28.3003
2 26.8552 23.0194 -0.18916
1 -0.554747 24.9523 0.175155
1 -0.499986 23.0756 1.74995
2 26.9353 25.0897 2.19133
1 1.53376 24.8716 2.6958
1 26.9692 25.0743 4.19747
2 1.49542 25.0164 4.65184
1 1.56037 23.098 5.11873
1 1.49288 25.004 6.66534
2 1.49113 23.0402 7.07055
1 -0.462016 23.0634 7.46795
1 1.46707 23.0253 9.06648
2 26.9553 22.9808 9.44011
1 26.9732 24.8896 9.9264
1 -0.508705 23.1454 11.4107
2 -0.480444 25.052 11.8979
1 1.44458 24.8943 12.3151
1 26.9571 24.9817 13.888
2 1.50192 24.9801 14.2561
1 1.4586 23.0313 14.7044
1 1.60709 25.0361 16.192
2 1.37233 23.0367 16.6895
1 27.0323 23.8044 17.1296
1 1.53247 23.0227 18.672
2 -0.369743 23.0403 18.9879
1 26.998 25.0402 19.5662
1 26.9726 23.0271 21.0474
2 -0.458262 24.9757 21.5072
1 1.44091 24.8491 21.9588
1 26.9728 25.0232 23.5071
2 1.47741 24.9956 23.9081
1 1.40636 23.0482 24.3053
1 1.50653 25.0011 25.8733
2 1.43166 23.0449 26.2639
1 -0.526409 23.0359 26.6768
1 1.29503 23.0278 28.1996
2 3.46795 -0.369662 28.7053
1 3.39934 1.52719 0.277804
1 3.60541 26.9836 1.80668
2 3.36285 1.52217 2.29871
1 5.39717 1.49857 2.67972
1 3.51069 1.53629 4.31042
2 5.41984 1.49139 4.65949
1 5.43448 -0.467083 5.08284
1 5.43672 1.50173 6.63447
2 5.41937 26.9901 7.04773
1 3.49835 -0.443897 7.42022
1 5.45234 -0.464465 8.99795
2 3.53913 26.9597 9.57936
1 3.47851 1.48825 9.84313
1 4.23146 26.9634 11.4167
2 3.45947 1.32653 11.8261
1 5.47942 1.58574 12.3162
1 3.47291 1.38527 13.8205
2 5.4212 1.38857 14.2601
1 5.3843 26.9192 14.6477
1 5.40065 1.4269 16.2823
2 5.27002 -0.505074 16.6115
1 3.36236 -0.467441 17.0291
1 5.19471 -0.523445 18.5233
2 3.30679 26.8666 19.1674
1 3.47529 1.341 19.5875
1 4.06801 26.7608 20.9254
2 3.6448 1.24681 21.5257
1 5.41009 2.34731 21.9532
1 3.42418 1.43324 23.4903
2 5.39858 1.52715 23.8458
1 5.37439 26.9627 24.3923
1 5.4009 1.51372 25.8929
2 5.41021 -0.442171 26.321
1 3.46686 26.9927 26.7072
1 5.40233 27.0231 28.281
2 3.46386 3.46751 -0.16417
1 3.42523 5.43472 0.231944
1 3.56987 3.51353 1.787
2 3.36732 5.42539 2.22507
1 5.24023 5.45732 2.74722
1 3.39951 5.37512 4.25182
2 5.39242 5.39976 4.67364
1 5.42472 3.45681 5.06605
1 5.379 5.39247 6.64059
2 5.41135 3.44698 7.04993
1 3.46248 3.42217 7.4735
1 5.42564 3.43415 9.02686
2 3.46234 3.41309 9.44804
1 3.43734 5.31341 9.83524
1 3.45754 3.39237 11.4294
2 3.42684 5.28568 11.8246
1 5.40429 5.36507 11.9265
1 3.26358 5.35514 13.7588
1 5.34534 3.24241 14.7684
1 5.46018 5.3855 16.59
2 5.41359 3.43092 16.6849
1 3.4389 3.42098 16.7694
1 5.60143 3.44578 18.6043
1 3.47496 5.56633 19.5991
1 3.26304 3.55 21.3565
2 3.42575 5.45686 21.5323
1 5.38384 5.43982 21.9028
1 3.43886 5.43263 23.5001
2 5.3907 5.4323 23.9044
1 5.37558 3.4972 24.3777
1 5.4159 5.42876 25.9116
2 5.41187 3.45863 26.3207
1 3.45647 3.45747 26.7319
1 5.39655 3.452 28.2981
2 3.44675 7.37976 28.7059
1 3.48089 9.33158 0.223665
1 3.43884 7.37545 1.80894
2 3.47998 9.33044 2.19989
1 5.45596 9.3086 2.61902
1 3.63136 9.30471 4.13772
2 5.50791 9.2947 4.6353
1 5.41941 7.34614 5.05701
1 5.45532 9.28011 6.62226
2 5.41749 7.32915 7.04189
1 3.46175 7.3894 7.45098
1 5.47224 7.20964 8.9891
2 3.45412 7.4931 9.44794
1 4.23156 9.27852 9.62038
1 3.43162 7.15503 11.3706
1 5.63855 9.23741 12.4693
1 3.38014 9.38641 14.0677
2 5.40316 9.40964 14.4196
1 5.31974 7.51311 14.7682
1 6.22974 9.37192 16.2064
2 5.49507 7.56373 16.7035
1 3.59365 7.19626 17.2002
1 5.47761 7.44167 18.6948
2 3.46224 7.39134 19.0946
1 3.47901 9.24091 19.3699
1 3.4674 7.41191 21.1192
2 3.50688 9.32041 21.4844
1 5.49068 9.15335 21.9891
1 3.45007 9.35981 23.4712
2 5.42051 9.30649 23.9211
1 5.3771 7.37312 24.3515
1 5.40976 9.33078 25.8929
2 5.4072 7.37606 26.3191
1 3.4565 7.37234 26.7275
1 5.40971 7.37625 28.2934
2 3.45792 11.2835 28.711
1 3.45196 13.2292 0.24781
1 3.46052 11.2852 1.81395
2 3.44673 13.2331 2.23179
1 5.39529 13.2233 2.63866
1 3.45162 13.2565 4.21126
2 5.40896 13.2172 4.59447
1 5.42723 11.221 5.01766
1 5.40958 13.0615 6.52425
2 5.42263 11.1913 7.03117
1 3.49179 11.2159 7.37538
1 5.4875 11.3871 8.95801
2 3.50868 11.0976 9.61507
1 3.46261 13.3701 9.84034
1 4.22856 11.5022 11.3648
2 3.46154 13.2448 11.8375
1 5.48298 13.411 12.3421
1 3.45902 13.2436 13.8354
2 5.41282 13.2813 14.2851
1 5.41009 11.3374 14.6772
1 5.40326 13.2689 16.2488
2 5.42598 11.1582 16.6502
1 3.40641 11.3846 17.1311
1 5.47273 11.2193 18.5844
2 3.49635 11.1832 19.126
1 3.46245 13.0718 19.2268
1 4.29078 11.0477 20.9401
1 5.63412 13.3168 22.0365
1 3.48078 13.2409 23.8073
2 5.45332 13.2423 23.9516
1 5.4254 11.2755 24.3216
1 5.43335 13.2327 25.9169
2 5.4122 11.2801 26.3021
1 3.45879 11.2572 26.7343
1 5.4102 11.3038 28.2756
2 3.4432 15.1788 28.7144
1 3.43372 17.1173 0.252997
1 3.40506 15.1703 1.81661
2 3.38683 17.1195 2.24509
1 5.26832 17.0687 2.65854
1 3.37851 17.1144 4.24712
2 5.28144 17.1587 4.63483
1 5.37469 15.1857 4.75555
1 5.39537 17.322 6.58008
1 3.26384 15.2349 7.54799
1 5.42082 15.232 9.38494
2 3.42993 15.2472 9.47933
1 3.44264 17.178 9.87789
1 3.43078 15.2402 11.4648
2 3.45132 17.1722 11.8646
1 5.41082 17.1796 12.2816
1 3.45292 17.1723 13.8363
2 5.39612 17.1696 14.2728
1 5.38911 15.2253 14.6544
1 5.40688 17.1769 16.2603
2 5.39921 15.2172 16.5956
1 3.41482 15.2254 16.7221
1 5.42415 15.2274 18.4624
1 3.4816 17.418 19.554
1 3.62578 15.4384 21.2417
2 3.49197 17.302 21.5007
1 5.45224 17.2614 21.9251
1 3.44808 17.0387 23.4371
2 5.4281 17.1988 23.931
1 5.43347 15.1907 24.3436
1 5.40337 17.0833 25.9584
2 5.40292 15.178 26.3183
1 3.44404 15.1802 26.7493
1 5.39848 15.1623 28.2867
2 3.43953 19.0151 28.7114
1 3.46272 20.8822 0.347112
1 3.40051 19.0469 1.84739
2 3.42397 21.0529 2.27906
1 5.33777 21.1921 2.73249
1 3.25234 20.953 4.18617
2 5.66324 21.326 4.66142
1 5.22499 19.1106 5.09126
1 5.46959 21.1041 6.6328
2 5.37634 19.2145 7.05263
1 3.43524 19.147 7.506
1 5.40291 19.143 9.04055
2 3.44614 19.129 9.47341
1 3.46129 21.0821 9.8885
1 3.46768 19.123 11.4476
2 3.54534 21.0871 11.8605
1 5.43204 21.0864 12.2753
1 3.51078 21.0883 13.8736
2 5.41557 21.0806 14.2826
1 5.407 19.1221 14.693
1 5.42386 21.0795 16.2634
2 5.42159 19.1281 16.6742
1 3.48785 19.1416 17.0859
1 5.42254 19.1764 18.6575
2 3.46365 19.2553 19.0586
1 3.43463 21.1257 19.4775
1 3.44793 19.2262 21.1176
2 3.42056 21.139 21.4635
1 5.40562 21.0907 21.5683
1 3.23185 21.2054 23.3818
1 6.17229 18.9354 24.4618
1 5.39071 21.0938 26.249
2 5.40421 19.1163 26.2349
1 3.38717 19.1506 26.7718
1 5.36475 19.053 28.2207
1 3.42371 25.1838 0.321875
1 3.44621 23.0474 2.14135
2 3.46705 25.029 2.26743
1 5.41609 24.9495 2.69517
1 3.43658 25.1724 4.22377
2 5.38893 24.9269 4.69334
1 6.08236 23.213 5.24258
1 5.3573 25.0619 6.69979
2 5.35952 23.0731 7.00405
1 3.41433 23.0288 7.54897
1 5.40507 23.0464 9.04132
2 3.4469 23.0454 9.48601
1 3.46483 24.9843 9.87092
1 3.47037 23.0355 11.4374
2 3.45892 25.1654 11.84
1 5.46264 24.8862 12.3191
1 3.45166 25.0379 13.8131
2 5.40718 24.9669 14.2666
1 5.41187 23.0324 14.6991
1 5.3778 24.9757 16.2466
2 5.40189 23.0311 16.6741
1 3.46053 23.0328 17.0836
1 5.40585 23.0179 18.6491
2 3.45036 23.0302 19.0611
1 3.37258 24.9248 19.4311
1 3.4408 23.0578 21.0636
2 3.39305 25.0587 21.4658
1 5.42649 24.8648 21.9701
1 3.42198 25.071 23.4726
2 5.37816 25.0942 23.9171
1 5.36406 23.2262 24.3597
1 5.38313 25.047 25.954
2 5.30741 23.0589 26.2857
1 3.3749 23.0438 26.3407
1 5.31581 23.1171 28.169
2 7.35966 -0.373802 28.6889
1 7.35491 1.49015 0.218721
1 7.3474 26.9991 1.84202
2 7.33787 1.42856 2.24914
1 9.27058 1.48135 2.62428
1 7.34392 1.4874 4.23524
2 9.23577 1.49477 4.65268
1 9.35072 -0.452183 5.08512
1 9.29139 1.50892 6.63307
2 9.32276 26.9906 7.06616
1 7.38741 26.9806 7.46295
1 9.31287 -0.480405 9.06233
2 7.37124 -0.479237 9.46567
1 7.37355 1.46655 9.86581
1 7.39244 26.9666 11.4597
2 7.39171 1.49742 11.8648
1 9.33908 1.52213 12.2619
1 7.4003 1.45489 13.87
2 9.36044 1.49084 14.2411
1 9.35247 -0.482681 14.3372
1 9.3128 1.64076 16.1811
1 7.15825 26.9339 16.772
1 9.5029 26.9723 18.7147
1 7.35059 1.68266 19.6456
1 7.50042 26.8894 21.3589
2 7.24531 1.53231 21.59
1 9.25627 1.68546 21.9949
1 7.3555 1.43584 23.5608
2 9.32695 1.68516 23.9411
1 9.32747 27.0353 24.3015
1 9.3396 1.52112 25.9183
2 9.3081 -0.362972 26.3086
1 7.36356 27.0141 26.7214
1 9.31146 26.9932 28.3062
2 7.36926 3.44713 -0.182708
1 7.36263 5.41901 -0.087699
1 7.35722 3.29462 1.75265
1 9.51616 5.40751 2.74595
1 7.37578 5.40967 4.5744
2 9.35216 5.41002 4.68089
1 9.32143 3.45679 5.06638
1 9.36323 5.40776 6.65612
2 9.32991 3.45442 7.04898
1 7.37331 3.46087 7.4697
1 9.33875 3.4319 9.02545
2 7.38113 3.44062 9.44199
1 7.42645 5.38603 9.85073
1 7.39848 3.41758 11.3778
2 7.38835 5.40169 11.9304
1 9.41303 5.41196 12.1992
1 7.58544 6.174 13.712
2 9.31545 5.41694 14.2242
1 9.49166 3.44564 14.6798
1 9.32319 5.43553 16.2256
2 9.35214 3.53379 16.6475
1 7.41666 3.4576 17.0395
1 9.33409 3.50521 18.6369
2 7.46443 3.55141 19.0906
1 7.38243 5.45891 19.4964
1 7.47674 3.59224 21.0765
2 7.38096 5.46718 21.502
1 9.34999 5.40337 21.9479
1 7.31179 5.53893 23.4445
2 9.33774 5.27459 23.9299
1 10.0906 3.46949 24.3736
1 9.3346 5.44317 25.9175
2 9.3295 3.47353 26.2162
1 7.3409 3.43288 26.7652
1 9.3236 3.46259 28.302
2 7.37062 7.39111 -0.21061
1 7.38456 9.37075 0.18467
1 7.38336 7.54783 1.72072
2 7.38102 9.41297 2.22189
1 9.34504 9.3237 2.63621
1 7.40948 9.32494 4.21119
2 9.34679 9.31338 4.6391
1 9.34616 7.36318 5.06235
1 9.34915 9.29916 6.64354
2 9.34507 7.36075 7.04707
1 7.39666 7.35696 7.44883
1 9.34204 7.36259 9.02741
2 7.39381 7.33504 9.42879
1 7.39209 9.33874 9.84976
1 7.39724 7.38859 11.3624
2 7.47863 9.31812 11.8524
1 9.39338 9.3157 12.2563
1 7.53116 9.36683 13.842
2 9.40279 9.35471 14.2977
1 9.49518 7.44475 14.7449
1 9.36962 9.35111 16.31
2 9.37183 7.37461 16.6911
1 7.44508 7.29076 17.1263
1 9.36491 7.3829 18.6822
2 7.40443 7.37376 19.0879
1 7.39934 9.30852 19.5078
1 7.42715 7.36884 21.0726
2 7.40008 9.28865 21.5192
1 9.34601 9.31017 21.9273
1 7.40343 9.32866 23.5213
2 9.3436 9.32216 23.9112
1 9.33086 7.3783 24.3392
1 9.33794 9.32893 25.894
2 9.32877 7.37584 26.3079
1 7.36649 7.40353 26.7038
1 9.33015 7.36944 28.2895
2 7.35683 11.3072 -0.18913
1 7.43157 13.2555 0.254561
1 7.26247 11.2804 1.76661
2 7.52887 13.2514 2.25323
1 9.33234 13.967 2.69103
1 7.35068 13.224 4.22889
2 9.33238 13.1532 4.51941
1 9.34092 11.2343 5.10981
1 9.35416 13.1764 6.67741
2 9.34695 11.2586 7.06365
1 7.40325 11.2504 7.4473
1 9.33426 11.2785 9.04154
2 7.38746 11.3031 9.44933
1 7.37561 13.2506 9.90464
1 7.36684 11.2722 11.4351
2 7.3761 13.2558 11.8814
1 9.27166 13.114 12.322
1 7.38323 13.2475 13.8976
2 9.32471 13.231 14.2828
1 9.36545 11.2897 14.7272
1 9.38343 13.2631 16.2599
2 9.36 11.3089 16.6995
1 7.45833 11.4167 17.1277
1 9.3591 11.2656 18.6926
2 7.39249 11.2019 19.0855
1 7.37997 13.0545 19.6161
1 7.40889 11.2157 21.1324
2 7.48354 13.2277 21.5403
1 9.37572 13.2382 21.9227
1 7.45177 13.2064 23.5612
2 9.37232 13.2274 23.9198
1 9.36226 11.2759 24.3301
1 9.34569 13.2327 25.9014
2 9.33122 11.2803 26.3113
1 7.37405 11.2917 26.7191
1 9.33363 11.2838 28.2899
2 7.35362 15.1879 -0.179655
1 7.3672 17.1071 0.177556
1 7.25145 15.2446 1.77612
2 7.33446 17.281 2.17667
1 9.40872 17.0014 2.3555
1 7.15911 17.1932 4.12362
1 9.35101 15.0248 5.20362
1 9.32833 17.1767 6.99598
2 9.42104 15.1668 7.10123
1 7.51542 15.1953 7.53892
1 9.3267 15.0711 9.0253
2 7.39157 15.2006 9.49224
1 7.35949 17.1741 9.8703
1 7.41018 15.2308 11.469
2 7.35411 17.1852 11.867
1 9.23549 17.2892 12.3657
1 7.33266 17.1618 13.8826
2 9.32541 17.1685 14.2839
1 9.34219 15.207 14.6647
1 9.35006 17.1612 16.2586
2 9.36433 15.2084 16.639
1 7.39877 15.2089 16.7077
1 9.50859 15.1995 18.5815
1 7.35622 17.3478 19.5855
1 7.42621 15.2086 21.373
2 7.39739 17.1794 21.5171
1 9.36287 17.1677 21.8849
1 7.44281 17.0318 23.4574
2 9.35769 17.1172 23.8782
1 9.37939 15.1738 24.3211
1 9.32811 17.1213 25.8743
2 9.32942 15.1835 26.3064
1 7.37726 15.1701 26.7261
1 9.33918 15.2013 28.2885
2 7.36209 19.0373 -0.0874531
1 7.35062 20.9417 0.320251
1 8.08907 19.0429 1.75918
2 7.36802 20.7763 2.33691
1 9.43497 21.1386 2.62813
1 7.50456 21.6924 4.04652
2 9.26008 21.1725 4.60578
1 9.54699 19.2832 5.18673
1 9.24018 21.1415 6.62975
2 9.33671 19.1638 7.09004
1 7.3478 19.1247 7.4554
1 9.26859 19.2818 9.02053
2 7.34923 19.1468 9.44786
1 7.32478 21.101 9.88268
1 7.3326 19.1317 11.4283
2 7.35324 21.0831 11.8559
1 9.26478 21.0726 12.2434
1 7.33746 21.0655 13.858
2 9.22947 21.057 14.2671
1 9.31033 19.1146 14.705
1 9.3091 21.0473 16.261
2 9.32871 19.1089 16.6849
1 7.37148 19.1218 17.0904
1 9.32353 19.1079 18.6624
2 7.37362 19.1982 19.0743
1 7.3967 21.0712 19.4744
1 7.39286 19.1676 21.1214
2 7.39451 21.0762 21.469
1 9.40541 21.0235 21.8537
1 7.57868 21.1603 23.3828
2 9.43882 21.0627 23.8619
1 9.36267 19.049 24.2685
1 9.35663 20.8805 25.7882
2 9.34155 19.0164 26.2975
1 7.41766 19.1029 26.8048
1 9.4047 19.1045 28.2453
1 7.34645 25.218 0.28849
1 7.3597 23.185 1.9614
2 7.3659 25.0699 2.24901
1 9.33498 25.0015 2.62194
1 7.43924 25.1577 4.19986
2 9.35295 25.046 4.64995
1 9.45153 23.1265 5.11224
1 9.30617 25.0338 6.66714
2 9.3294 23.0582 7.08256
1 7.41032 23.0715 7.55829
1 9.33021 23.0658 9.09139
2 7.36059 23.0533 9.4856
1 7.35395 25.0108 9.89892
1 7.38044 23.0399 11.4484
2 7.38132 24.9923 11.876
1 9.33117 24.9721 12.2602
1 7.38674 25.0002 13.864
2 9.33484 24.9784 14.2322
1 9.30073 22.9817 14.6455
1 9.32594 24.8085 16.1615
2 9.31848 22.9432 16.6688
1 7.36294 23.0135 17.0874
1 9.32696 22.9973 18.6489
2 7.36465 22.949 19.0651
1 7.34163 24.803 19.574
1 7.37072 22.9738 21.0885
2 7.28687 24.9443 21.5204
1 9.13825 24.88 21.9981
1 7.3278 25.0343 23.5688
2 9.29565 25.0188 23.9185
1 9.37572 23.0357 24.0069
1 9.27982 25.204 25.8428
1 7.19717 23.0605 26.3861
1 9.55532 23.0443 28.5541
2 11.2393 -0.463906 28.7264
1 11.2393 1.49851 0.240514
1 11.2578 -0.463064 1.81765
2 11.2616 1.48932 2.20646
1 13.2368 1.49591 2.30983
1 11.099 1.51044 4.13673
1 13.2028 26.8563 5.12845
1 13.2386 1.48872 6.97995
2 13.2393 26.7781 7.07355
1 11.2406 -0.37161 7.52034
1 13.2432 -0.55407 9.05094
2 11.2822 26.9723 9.46941
1 11.2901 1.48731 9.88964
1 11.2859 26.9652 11.4428
2 11.2917 1.49058 11.8623
1 13.246 1.48807 12.2727
1 11.3049 1.46282 13.8365
2 13.2486 1.5044 14.2533
1 13.2749 -0.440528 14.6753
1 13.2764 1.51666 16.2281
2 13.3626 27.0054 16.6521
1 11.4967 27.0005 17.0933
1 13.3101 -0.356378 18.5937
2 11.3682 26.9715 19.1738
1 11.2588 1.57291 19.4525
1 12.1017 -0.309204 20.9397
2 11.303 1.45389 21.4696
1 13.2694 1.6274 21.9366
1 11.326 1.37818 23.4257
2 13.4078 1.50892 23.8842
1 13.1301 26.9069 24.3665
1 13.2637 1.50449 25.8647
2 13.1169 -0.472908 26.3023
1 11.2399 26.9827 26.7351
1 13.148 -0.460037 28.3387
2 11.2747 3.45082 -0.14775
1 11.3 5.41108 0.259842
1 11.2927 3.45104 1.8222
2 11.3828 5.41182 2.23834
1 13.2749 5.42226 2.66042
1 11.3439 5.42833 4.26484
2 13.263 5.50405 4.66031
1 13.2555 3.6299 5.16225
1 13.2478 5.46806 6.68018
2 13.2312 3.4618 7.09231
1 11.2894 3.44784 7.46949
1 13.2315 3.46528 9.06908
2 11.2835 3.44702 9.45777
1 11.2983 5.40832 9.86306
1 11.3073 3.44562 11.4362
2 11.3122 5.40846 11.8414
1 13.2387 5.41222 12.266
1 11.3027 5.42973 13.8294
2 13.2287 5.41453 14.2631
1 13.2158 3.45857 14.6492
1 13.2424 5.41162 16.2467
2 13.2331 3.45801 16.6276
1 11.2632 3.47592 17.0505
1 13.0821 3.47496 18.5647
2 11.2162 3.48002 19.0862
1 11.283 5.42614 19.5118
1 11.2784 3.48087 21.071
2 11.3001 5.43741 21.4934
1 13.2577 5.41599 21.9144
1 11.3329 5.54611 23.4449
2 13.2488 5.4446 23.9017
1 13.1572 3.51829 24.3687
1 13.2402 5.44294 25.907
2 13.2257 3.46857 26.3214
1 11.3124 3.46089 26.7979
1 13.2477 3.44986 28.3186
2 11.286 7.36297 28.7091
1 11.2791 9.31116 0.23046
1 11.3095 7.36901 1.81258
2 11.3045 9.31789 2.22485
1 13.2479 9.30353 2.65244
1 11.2903 9.3278 4.21507
2 13.2346 9.33666 4.64452
1 13.2491 7.40325 5.07365
1 13.2432 9.33871 6.63998
2 13.2422 7.39275 7.06438
1 11.2938 7.37859 7.47217
1 13.2428 7.37962 9.04482
2 11.2896 7.36763 9.45388
1 11.2946 9.32431 9.86805
1 11.3165 7.37255 11.4297
2 11.315 9.33056 11.8544
1 13.2508 9.31753 12.2782
1 11.3195 9.36139 13.8475
2 13.2512 9.32477 14.2726
1 13.2426 7.37106 14.6897
1 13.2425 9.31452 16.264
2 13.2445 7.36311 16.6722
1 11.3038 7.35996 17.1131
1 13.2453 7.38906 18.6548
2 11.3029 7.38035 19.0915
1 11.3025 9.33316 19.5123
1 11.3007 7.38354 21.0647
2 11.2884 9.33172 21.499
1 13.2293 9.37054 21.9291
1 11.2905 9.32527 23.4903
2 13.2479 9.33617 23.9042
1 13.2624 7.39478 24.3334
1 13.2437 9.33851 25.8903
2 13.2468 7.38469 26.3146
1 11.2912 7.37924 26.7298
1 13.2425 7.36862 28.2978
2 11.3001 11.2809 -0.178474
1 11.2275 13.2364 0.261683
1 11.4087 11.2378 1.77094
2 11.1331 13.2371 2.25455
1 13.2643 13.2385 2.66889
1 11.3135 13.2271 4.23248
2 13.2509 13.2379 4.6334
1 13.2493 11.2786 5.06165
1 13.2477 13.2328 6.60945
2 13.248 11.2868 7.0498
1 11.2997 11.2674 7.47736
1 13.2514 11.2719 9.0326
2 11.2932 11.2856 9.45553
1 11.294 13.2106 9.86625
1 11.284 11.2677 11.4194
2 11.2755 13.3828 11.8338
1 13.2249 13.095 12.2971
1 11.2474 13.2616 13.8365
2 13.1326 13.2065 14.2914
1 13.2242 11.2699 14.7167
1 13.2402 13.2184 16.2835
2 13.2352 11.2698 16.6949
1 11.2978 11.2904 17.1101
1 13.2375 11.2885 18.6834
2 11.2966 11.284 19.0975
1 11.3095 13.2426 19.5124
1 11.2892 11.2857 21.0782
2 11.3085 13.2423 21.4964
1 13.2502 13.2479 21.9129
1 11.3103 13.2334 23.4885
2 13.2529 13.2422 23.8979
1 13.2512 11.286 24.3203
1 13.2356 13.2405 25.8779
2 13.2466 11.2892 26.2992
1 11.2901 11.286 26.726
1 13.2485 11.2893 28.2743
2 11.2926 15.2008 -0.18155
1 11.3119 17.1714 0.212767
1 11.4355 15.2265 1.76643
2 11.3565 17.1506 2.19611
1 13.3308 17.1857 2.62305
1 11.5036 17.1388 4.13617
2 13.3604 17.1665 4.65473
1 13.2742 15.2023 5.0651
1 13.2778 17.1678 6.63207
2 13.2604 15.1907 7.03301
1 11.3258 15.2497 7.48702
1 13.3419 15.0967 8.95583
2 11.2815 15.3516 9.60439
1 12.0421 17.1977 9.86938
1 12.0466 15.1699 11.4146
2 11.3061 17.0223 11.74
1 13.2792 17.2691 12.3415
1 11.2544 17.0914 13.8078
2 13.4176 17.0901 14.2693
1 13.1426 15.1446 14.7285
1 13.3253 17.111 16.2893
2 13.2604 15.1823 16.6867
1 11.3426 15.2069 17.08
1 13.2804 15.1952 18.6743
2 11.3814 15.1976 19.0929
1 11.304 17.1445 19.4975
1 11.3127 15.1996 21.0744
2 11.3055 17.1476 21.4864
1 13.2515 17.1563 21.9085
1 11.3025 17.1399 23.4725
2 13.2435 17.1579 23.896
1 13.2395 15.1992 24.3091
1 13.2391 17.1586 25.8759
2 13.2257 15.2018 26.2834
1 11.2826 15.196 26.7136
1 13.2214 15.1931 28.2692
2 11.3131 19.1227 -0.176147
1 11.3339 21.0727 0.24618
1 11.3367 19.1077 1.81405
2 11.3283 21.0868 2.22442
1 13.2519 21.0762 2.63394
1 11.3185 21.0919 4.21101
2 13.2439 21.0683 4.63762
1 13.2478 19.1156 5.07557
1 13.2483 21.0784 6.60846
2 13.2508 19.1435 7.04945
1 11.296 19.0971 7.51053
1 13.3122 19.2585 8.99286
2 11.2843 18.989 9.49203
1 11.2698 21.0861 9.88635
1 11.2812 19.1543 11.4598
2 11.266 21.0805 11.8377
1 13.2543 21.0998 11.9463
1 11.0965 21.0917 13.7627
1 13.04 18.9672 14.8335
1 13.2532 21.072 16.583
2 13.2294 19.0998 16.7352
1 11.2816 19.0947 17.1171
1 13.2452 19.0792 18.6952
2 11.2824 19.0857 19.0832
1 11.2735 21.001 19.4602
1 11.3168 19.0765 21.0689
2 11.3213 20.9724 21.4783
1 13.2607 21.055 21.9035
1 11.3342 21.0563 23.4751
2 13.2668 21.0668 23.8967
1 13.2512 19.1112 24.3139
1 13.2822 21.06 25.8826
2 13.2573 19.1117 26.2979
1 11.3203 19.1008 26.6993
1 13.2566 19.1254 28.2867
2 11.431 23.0436 28.7463
1 11.2937 25.0119 0.248589
1 11.347 23.0483 1.82133
2 11.2814 25.0073 2.22013
1 13.2007 24.9906 2.61376
1 11.2648 25.0378 4.1698
2 13.22 24.9411 4.76747
1 13.2263 23.0051 5.0402
1 13.9919 24.9685 6.62886
2 13.2486 23.1787 7.0419
1 11.2424 22.9192 7.5369
1 13.2384 23.102 9.04952
2 11.2861 23.0279 9.47991
1 11.275 25.0051 9.8825
1 11.2893 23.0433 11.4506
2 11.2862 25.0031 11.8594
1 13.246 25.0212 12.2795
1 11.2893 25.0108 13.8421
2 13.2481 25.0989 14.2621
1 13.2434 23.2286 14.7677
1 13.2552 25.0619 16.2797
2 13.2249 23.0485 16.6983
1 11.2714 23.002 17.0451
1 13.1885 22.9292 18.6489
2 11.2723 22.9926 19.0329
1 11.2788 24.9694 19.1284
1 11.2997 22.84 20.9669
1 13.3637 24.8568 22.0441
1 11.2453 24.9911 23.8482
2 13.1819 24.9744 23.9565
1 13.2698 23.0181 24.3331
1 13.2673 24.9768 25.9293
2 13.3654 23.021 26.301
1 11.5179 23.0257 26.7968
1 13.3353 23.0349 28.3371
2 15.0539 -0.460117 28.7485
1 15.1912 1.50893 0.232507
1 15.157 -0.456716 1.82696
2 15.2153 1.50117 2.20673
1 17.1947 1.5443 2.63229
1 15.3779 1.49445 4.14386
2 17.2467 1.49241 4.65255
1 17.1519 -0.457017 5.09144
1 17.1733 1.50062 6.63005
2 17.1599 26.9731 7.0584
1 15.2409 -0.371144 7.51711
1 17.1668 -0.47587 9.06261
2 15.2042 26.973 9.46893
1 15.1798 1.48551 9.89107
1 15.2005 26.9651 11.4468
2 15.19 1.49055 11.8601
1 17.1265 1.49053 12.2513
1 15.2 1.49085 13.841
2 17.1374 1.47155 14.2508
1 17.1309 26.9541 14.6884
1 17.1776 1.4944 16.2298
2 17.1839 26.9759 16.6636
1 15.2639 -0.515715 17.0821
1 17.232 -0.372198 18.6243
2 15.2163 26.748 19.1058
1 15.2193 1.25584 19.6068
1 15.2185 -0.563348 21.0952
2 15.1931 1.47276 21.6119
1 17.1398 1.5028 21.8184
1 15.2379 2.26075 23.4935
2 17.0216 1.60762 23.8493
1 17.3733 -0.269723 24.1247
1 17.0547 1.72566 25.8397
1 14.9655 26.9649 26.7993
1 16.9258 26.9817 28.58
2 15.1899 3.45945 -0.157001
1 15.1958 5.41746 0.2562
1 15.2008 3.45839 1.82372
2 15.2012 5.41457 2.2413
1 17.1205 5.42935 2.66841
1 15.1979 5.42626 4.24433
2 17.1331 5.41135 4.66265
1 17.1457 3.45289 5.07215
1 17.1178 5.40889 6.63868
2 17.0619 3.44974 7.05146
1 15.1668 3.44934 7.47485
1 17.0912 3.43825 9.07891
2 15.1741 3.44802 9.47102
1 15.1755 5.4108 9.87204
1 15.171 3.44798 11.4466
2 15.1709 5.40624 11.8488
1 17.0822 5.40032 12.2297
1 15.1635 5.40779 13.8469
2 17.0551 5.40098 14.2724
1 17.1598 3.44818 14.6526
1 17.1558 5.39426 16.2642
2 17.1868 3.44153 16.6434
1 15.2103 3.44984 16.7463
1 17.3328 3.42963 18.5942
1 15.277 5.63336 19.5879
1 15.0714 3.46435 21.1853
2 15.3657 5.42507 21.5309
1 17.157 6.19511 21.9472
1 15.1872 5.45329 23.508
2 17.1776 5.46375 23.7811
1 17.2736 3.59675 24.3976
1 17.1158 5.49712 25.929
2 17.1448 3.59806 26.3428
1 15.1768 3.50426 26.7429
1 17.128 3.49986 28.3251
2 15.2002 7.37088 -0.164814
1 15.1872 9.32958 0.245527
1 15.194 7.36995 1.81146
2 15.1808 9.32551 2.22543
1 17.0939 9.32324 2.62258
1 15.1697 9.33575 4.22472
2 17.0565 9.33017 4.65138
1 17.1197 7.37369 5.0675
1 17.1307 9.33577 6.62953
2 17.1297 7.37228 7.042
1 15.1903 7.38243 7.46591
1 17.1193 7.36577 9.03582
2 15.1863 7.36474 9.45524
1 15.2021 9.31603 9.86798
1 15.1884 7.36834 11.4391
2 15.1998 9.31258 11.8593
1 17.1567 9.29973 12.2841
1 15.1962 9.3112 13.846
2 17.1534 9.22976 14.2669
1 17.1195 7.34176 14.7032
1 17.1462 9.2668 16.301
2 17.1574 7.34515 16.6943
1 15.1975 7.36914 17.1001
1 17.1664 7.40088 18.6697
2 15.1892 7.48729 19.0763
1 15.1954 9.38138 19.4932
1 15.0847 7.49314 21.0674
2 15.1886 9.37497 21.5021
1 17.1592 9.3577 21.9052
1 15.2077 9.34428 23.4815
2 17.1673 9.33902 23.8959
1 17.1745 7.42296 24.3662
1 17.1612 9.35485 25.9025
2 17.1596 7.40611 26.3212
1 15.1934 7.40024 26.7415
1 17.1525 7.37552 28.2966
2 15.1977 11.2846 -0.171745
1 15.1833 13.2409 0.251706
1 15.194 11.2868 1.81213
2 15.2017 13.2416 2.23381
1 17.1592 13.2346 2.65702
1 15.2081 13.2441 4.21934
2 17.1598 13.2429 4.63971
1 17.1372 11.2879 5.0649
1 17.1649 13.2452 6.61903
2 17.156 11.2908 7.0467
1 15.2021 11.2879 7.46557
1 17.1567 11.2721 9.02749
2 15.2035 11.2684 9.44994
1 15.2061 13.2078 9.85137
1 15.1826 11.2455 11.4299
2 15.1563 13.2027 11.8422
1 17.0963 13.079 11.9986
1 15.0153 13.2404 13.8074
1 17.1388 11.0931 14.7856
1 17.1331 13.245 16.6215
2 17.0647 11.2628 16.7185
1 15.1697 11.2724 17.1061
1 17.1075 11.279 18.7311
2 15.1831 11.3097 19.1002
1 15.1994 13.2531 19.5128
1 15.1873 11.3063 21.0901
2 15.2038 13.2536 21.4959
1 17.157 13.2461 21.9148
1 15.2014 13.2397 23.4788
2 17.1572 13.2422 23.8969
1 17.1667 11.289 24.3176
1 17.1521 13.2441 25.8824
2 17.1578 11.2957 26.3066
1 15.203 11.2945 26.7212
1 17.1507 11.2751 28.2915
2 15.1069 15.2004 -0.168453
1 15.193 17.1568 0.241618
1 15.2061 15.1988 1.81304
2 15.2385 17.1654 2.22323
1 17.1749 17.1633 2.64799
1 15.2501 17.1632 4.22553
2 17.1834 17.1719 4.63747
1 17.1807 15.2027 5.05493
1 17.1785 17.1636 6.61524
2 17.1805 15.2078 7.02787
1 15.2276 15.2158 7.41488
1 17.1376 15.1996 8.97314
2 15.2249 15.1931 9.44394
1 15.229 17.1653 9.87964
1 15.1955 15.1535 11.392
2 15.2069 17.2091 11.9851
1 17.1483 17.3042 12.2984
1 15.1985 17.932 13.8834
2 17.0078 17.2624 14.2604
1 17.3351 15.3722 14.8303
1 17.0814 17.2216 16.2954
2 17.1739 15.2283 16.7337
1 15.2183 15.1899 17.0971
1 17.1607 15.2302 18.7014
2 15.2163 15.2082 19.0885
1 15.2009 17.1611 19.5086
1 15.1994 15.2039 21.0751
2 15.1864 17.1624 21.491
1 17.1131 17.1574 21.9059
1 15.1835 17.158 23.4869
2 17.1156 17.1406 23.9092