1645
Atoms. Timestep: 1297
2 26.6752 26.7193 -0.0261202
1 -0.215955 1.68289 0.26295
1 -0.221151 -0.160588 1.91598
2 -0.224613 1.68149 2.33006
1 1.69988 1.72666 2.72543
1 -0.223142 1.67763 4.33144
2 1.68164 1.73084 4.70481
1 1.7133 -0.208476 5.0678
1 1.76752 1.6936 6.68388
2 1.43303 -0.132989 6.95304
1 26.6422 -0.236227 7.41251
1 1.84939 -0.214097 8.82195
2 -0.0918482 -0.236963 9.27076
1 -0.169811 1.45571 10.1246
2 -0.226897 1.95557 11.9599
1 1.68399 1.59642 12.2955
1 -0.189138 1.76231 13.8635
2 1.68233 1.6256 14.2856
1 1.67276 26.7088 14.6477
1 1.70106 1.61108 16.2127
2 1.67856 26.6925 16.627
1 -0.232173 -0.234458 17.0552
1 1.70783 -0.162911 18.6228
2 -0.213099 -0.169964 19.031
1 -0.203542 1.69928 19.4469
1 -0.236178 -0.215523 21.0323
2 -0.187737 1.70721 21.445
1 1.69578 1.71633 21.8552
1 -0.220193 1.69145 23.4596
2 1.6602 1.71209 23.8646
1 1.6819 26.7284 24.2055
1 1.67751 1.56013 25.7927
2 1.74888 26.6627 26.2205
1 -0.147421 26.6834 26.6556
1 1.56632 26.6631 28.1799
2 -0.221937 3.61885 28.5709
1 26.726 5.69118 0.449285
1 26.7212 3.51001 1.87862
2 -0.209568 5.27836 2.2351
1 1.43636 5.58363 3.03714
2 1.92 5.55331 4.87672
1 1.60729 3.67386 5.12474
1 1.67357 5.53748 6.75
2 1.70204 3.6046 7.12625
1 -0.192699 3.54171 7.52164
1 1.6959 3.5403 9.12961
2 -0.212367 3.59294 9.48398
1 26.7149 5.55626 9.76019
1 26.6847 3.72427 11.4302
2 26.6514 5.59535 11.6295
1 1.44114 5.57356 12.4042
2 1.96511 5.59534 14.1567
1 1.59216 3.95878 14.9192
2 1.67604 3.37306 16.7216
1 -0.189786 3.65878 17.0609
1 1.77261 3.60293 18.6323
2 -0.216421 3.54626 19.0116
1 -0.198195 5.41871 19.3698
1 -0.227382 3.64158 21.0026
2 -0.211285 5.59043 21.2229
1 1.56732 5.56482 22.0043
2 1.9228 5.55531 23.9081
1 1.58959 3.67816 23.9071
1 1.6471 5.65138 25.7656
1 26.5955 3.6451 26.6583
1 1.72156 3.75587 28.4906
2 -0.235829 7.44238 28.3697
1 -0.250433 9.17007 0.566974
2 26.6424 9.79028 2.38987
1 1.46682 9.30176 2.74612
1 26.6978 9.45273 4.30603
2 1.65294 9.34318 4.69553
1 1.60866 7.42168 5.13176
1 1.67511 9.39696 6.66773
2 1.67393 7.48045 7.11792
1 26.7314 7.48153 7.49198
1 1.68394 7.48437 9.09294
2 -0.234973 7.49601 9.43107
1 -0.163696 9.45351 9.81346
1 26.661 7.46799 11.4008
2 -0.23614 9.37905 11.6892
1 1.45458 9.33235 12.5592
2 1.94308 9.36168 14.3777
1 1.58877 7.2806 14.8432
1 1.69116 9.47497 16.2336
2 1.66575 7.71421 16.7539
1 -0.181561 7.32341 16.7667
1 1.81009 7.44904 18.584
1 -0.180963 9.50914 19.4873
1 -0.18193 7.51373 21.317
2 26.4604 9.40626 21.3472
1 -0.0663978 9.4121 23.2167
2 1.65077 9.3803 24.0531
1 1.62914 7.45558 24.2282
1 1.67574 9.40954 25.9297
2 1.61978 7.51173 26.2021
1 26.7038 7.49725 26.5006
1 1.67922 7.42317 28.1659
2 26.7133 10.9555 28.5275
1 26.697 11.5671 1.7145
2 26.6986 13.2953 2.52947
1 1.66301 13.2815 2.77573
1 26.7105 13.246 4.40272
2 1.69559 13.2605 4.72513
1 1.67898 11.3073 5.0104
1 1.70935 13.2275 6.67855
2 1.6946 11.3084 6.8921
1 -0.0311797 11.3365 7.70874
2 26.484 11.3479 9.55488
1 -0.198997 13.2187 9.89745
1 -0.247825 11.3119 11.4525
2 26.7271 13.2602 11.8884
1 1.65191 13.2704 12.3016
1 26.6864 13.3119 13.8835
2 1.66555 13.2456 14.2693
1 1.62306 11.2921 14.6325
1 1.71206 13.2449 16.2394
2 1.76175 11.3559 16.6244
1 -0.100231 11.3762 17.1137
1 1.76283 11.2636 18.6294
2 -0.174947 11.3807 19.0457
1 -0.202744 13.2554 19.4453
1 -0.162296 11.2907 21.0492
2 26.7268 13.2176 21.4213
1 1.67753 13.1954 21.8249
1 26.7325 13.2405 23.3958
2 1.67583 13.181 23.8234
1 1.66692 11.2934 24.2656
1 1.67228 13.2238 25.8326
2 1.67756 11.3421 26.2436
1 26.7146 11.2674 26.6345
1 1.6083 11.3694 28.2178
2 -0.154609 15.4415 28.4815
1 -0.227622 17.1972 0.369762
1 -0.225761 15.0094 1.72286
2 26.7227 16.9685 2.3203
1 1.67238 17.0565 2.73277
1 26.7252 17.0501 4.28413
2 1.684 17.0914 4.71607
1 1.68123 15.1718 5.12404
1 1.68507 17.0702 6.70545
2 1.69038 15.1539 7.11766
1 26.7375 15.1637 7.54086
1 1.69583 15.1813 9.11051
2 26.7259 15.1624 9.5062
1 26.6955 17.0807 9.92979
1 26.6869 15.1694 11.4761
2 26.6817 17.0601 11.9214
1 1.60979 17.0944 12.2785
1 -0.124156 17.0352 13.9061
2 1.77311 17.0824 14.2431
1 1.76797 15.1752 14.6619
1 1.75989 17.0944 16.224
2 1.78043 15.1716 16.6387
1 -0.088921 15.1783 17.1029
1 1.72179 15.1776 18.6459
2 -0.229576 15.16 19.0527
1 26.7356 17.0653 19.4316
1 -0.227789 15.1601 21.058
2 -0.17642 17.0985 21.4025
1 1.6814 17.0941 21.8326
1 -0.176906 17.1571 23.4404
2 1.67466 16.834 23.7391
1 1.70194 15.0647 24.2376
1 1.68134 17.2991 25.5942
2 1.71554 15.153 26.1715
1 -0.169686 15.2275 26.5474
1 1.67612 15.1538 28.1572
2 26.7003 19.1021 0.0206216
1 26.7188 21.0388 0.169697
1 26.6806 18.8986 1.97088
1 1.8256 20.9849 2.78495
1 -0.202612 20.9719 4.61643
2 1.73914 20.9435 4.7357
1 1.70985 19.0009 5.11221
1 1.71691 20.8073 6.68234
2 1.70061 18.9399 7.13506
1 26.7389 19.0132 7.52211
1 1.69641 18.98 9.11161
2 26.7171 18.9862 9.49518
1 26.7089 20.8989 9.862
1 26.6533 18.9772 11.4991
2 26.7034 20.8845 11.874
1 1.65181 20.8767 12.269
1 26.716 20.9304 13.8716
2 1.66403 20.9258 14.2426
1 1.72484 18.9981 14.656
1 1.68757 20.9588 16.217
2 1.77631 19.0272 16.6339
1 -0.104879 18.9718 17.0785
1 1.71397 19.014 18.6325
2 -0.2197 18.9544 19.0291
1 -0.15395 20.8392 19.4792
1 -0.226152 19.0028 21.0312
2 26.7318 20.9263 21.4288
1 1.68325 20.95 21.8293
1 -0.192636 20.8694 23.424
2 1.68228 21.2092 23.7214
1 1.68767 20.7486 25.5749
2 1.67819 19.0266 26.4146
1 -0.238339 19.0415 26.6656
1 1.67919 19.0605 28.2931
2 -0.236387 22.8922 28.3821
1 -0.231379 24.6022 0.576249
2 -0.212481 25.048 2.4439
1 1.66422 24.7568 2.74276
1 -0.215889 24.8198 4.35593
2 1.7324 24.7976 4.72596
1 1.69088 22.8775 4.84367
1 1.83256 25.0239 6.66127
1 26.5976 22.924 7.58445
1 1.66309 22.9253 9.42703
2 26.7158 22.851 9.51542
1 -0.18529 25.0421 10.1163
1 -0.250926 22.7695 11.4577
2 -0.211248 24.5309 11.9565
1 1.54898 25.0599 12.2933
1 -0.227488 24.7771 13.8852
2 1.67106 24.8224 14.2528
1 1.69085 22.8814 14.5513
1 1.68456 24.7833 16.2521
2 1.70945 22.8731 16.4382
1 -0.144293 22.8906 16.8671
1 -0.129896 24.9251 19.4869
1 -0.201689 22.8767 21.3303
2 26.7356 24.825 21.4391
1 1.70006 24.8468 21.8233
1 26.7208 24.8357 23.4165
2 1.68351 24.8535 23.8127
1 1.70633 22.9768 24.223
1 1.69595 24.799 25.8324
2 1.70161 22.8651 26.1603
1 -0.224958 22.8466 26.4994
1 1.67692 22.8376 28.1352
1 3.60851 1.68438 0.43792
1 3.60645 26.7004 2.30739
2 3.60009 1.68062 2.34653
1 5.49125 1.73085 2.71805
1 3.57862 1.7861 4.31639
2 5.4423 1.74136 4.73758
1 5.52698 -0.152195 5.13592
1 5.44938 1.65526 6.74367
2 5.74764 26.6971 6.99709
1 5.28479 26.706 8.81877
2 3.57802 26.7155 9.55114
1 3.61104 1.50129 10.1754
2 3.58295 1.9678 12.0054
1 5.46743 1.62374 12.2977
1 3.56738 1.76947 13.8925
2 5.52487 1.67747 14.2841
1 5.51296 26.7324 14.6667
1 5.50598 1.69257 16.264
2 5.52188 -0.228466 16.6514
1 3.58834 26.6962 17.0504
1 5.33677 -0.0431634 18.6223
2 3.52969 26.4322 18.9566
1 3.58435 -0.0108815 20.79
2 3.55199 1.74503 21.6435
1 5.40325 1.72686 21.9019
1 3.57429 1.72996 23.5365
2 5.53855 1.6788 23.8583
1 5.59322 -0.226187 24.1811
1 5.57894 1.65855 25.8136
2 5.57575 26.7118 26.1843
1 3.65215 26.7231 26.3091
1 5.6793 26.7207 28.1429
2 3.60641 3.42755 28.4997
1 3.57367 3.79312 1.75184
2 3.58885 5.42802 2.60993
1 5.54365 5.52825 2.78063
1 3.7087 5.51984 4.44191
2 5.62018 5.54943 4.77148
1 5.58028 3.61916 5.16091
1 5.56854 5.54245 6.74426
2 5.53237 3.60398 7.1317
1 3.60816 3.61074 7.54284
1 5.5183 3.57763 9.11092
2 3.60557 3.61441 9.52075
1 3.59762 5.57188 9.88424
1 3.54893 3.73422 11.4774
2 3.64779 5.6056 11.8465
1 5.57724 5.54784 12.2428
1 3.7311 5.56616 13.7921
2 5.59337 5.54004 14.2725
1 5.54849 3.60648 14.6612
1 5.54526 5.52634 16.275
2 5.52712 3.60555 16.6248
1 3.57303 3.71273 17.0355
1 5.51076 3.53357 18.6451
2 3.64615 3.66118 18.9067
1 3.56247 3.68425 20.7659
2 3.54871 5.54535 21.6115
1 5.49314 5.48862 21.7209
1 3.70317 5.5075 23.4689
2 5.55177 5.52735 23.8097
1 5.59872 3.56548 24.199
1 5.57681 5.40241 25.7405
2 5.62792 3.53895 26.1964
1 3.75019 3.61873 26.6315
1 5.51553 3.65998 28.201
2 3.59303 7.72254 28.4989
1 3.58251 9.53174 0.0781554
1 3.50595 6.90697 1.53442
1 5.63042 9.37398 2.74078
1 3.58437 9.34806 4.5979
2 5.50378 9.38389 4.73032
1 5.54055 7.47222 5.15333
1 5.51102 9.41344 6.74987
2 5.53668 7.47579 7.12421
1 3.59978 7.46729 7.50281
1 5.50893 7.47595 9.10153
2 3.59212 7.49979 9.4885
1 3.549 9.45152 9.92278
1 3.54976 7.49348 11.4838
2 3.60801 9.39162 11.9071
1 5.56269 9.41067 12.2477
1 3.70143 9.35234 13.8482
2 5.59033 9.39615 14.2648
1 5.59428 7.46583 14.6724
1 5.53459 9.38968 16.2609
2 5.51098 7.45655 16.6479
1 3.54705 7.35397 16.7379
1 5.58342 7.47721 18.6187
1 3.50274 7.47491 21.1463
2 3.8754 9.2844 21.514
1 5.64857 9.376 21.869
1 3.40948 9.37557 23.2963
2 5.56365 9.41226 23.8211
1 5.5033 7.48708 23.8915
1 5.49648 9.53881 25.7433
1 3.48615 7.43156 26.6335
1 5.49047 7.41227 28.4953
2 3.57426 11.4192 28.5809
1 3.59828 13.2982 0.356744
1 3.58986 11.4879 1.91158
2 3.6056 13.3459 2.37075
1 5.54576 13.2486 2.74923
1 3.62077 13.2652 4.3359
2 5.54809 13.2395 4.7299
1 5.50806 11.3094 5.14074
1 5.5208 13.2232 6.71571
2 5.54003 11.3248 7.10883
1 3.4163 11.31 7.74338
1 5.66859 11.4116 9.06568
2 3.89405 11.3318 9.59627
1 3.53668 13.2002 9.92259
1 3.56603 11.3039 11.4954
2 3.53102 13.258 11.896
1 5.41526 13.2243 12.3518
1 3.59172 13.2244 13.8841
2 5.57765 13.2653 14.2946
1 5.59082 11.3344 14.6657
1 5.52624 13.2368 16.2772
2 5.56895 11.3141 16.6506
1 3.64934 11.3234 17.0433
1 5.50511 11.2703 18.6609
2 3.62206 11.5557 18.9517
1 3.61873 13.3181 19.4946
1 3.53474 10.946 20.7548
2 3.52568 13.2883 21.4178
1 5.38432 13.2446 21.8492
1 3.58207 13.1998 23.3921
2 5.51207 13.2493 23.8132
1 5.50772 11.3326 24.1879
1 5.51033 13.2809 25.7992
2 5.51724 11.41 26.2139
1 3.59273 11.3696 26.6045
1 5.51032 11.3568 28.1972
2 3.60538 15.1875 28.5843
1 3.59524 17.1035 0.354301
1 3.61832 15.2082 1.94142
2 3.61243 17.1067 2.34628
1 5.55178 17.0924 2.75945
1 3.61555 17.0853 4.32122
2 5.56257 17.0592 4.74115
1 5.56922 15.1667 5.13944
1 5.56115 17.0757 6.76794
2 5.54246 15.1472 7.11542
1 3.62178 15.166 7.5264
1 5.58328 15.0462 9.10191
2 3.63552 15.1338 9.48746
1 3.67053 17.0839 9.87521
1 3.6667 15.1992 11.4668
2 3.36729 17.0775 11.7706
1 3.82449 17.0938 13.639
2 5.56842 17.095 14.4744
1 5.54249 15.1834 14.7009
1 5.58275 17.0847 16.3533
2 5.57638 15.1407 16.6684
1 3.65276 15.1697 17.0648
1 5.57086 15.1686 18.6315
2 3.63345 15.2128 19.0506
1 3.61669 17.1121 19.441
1 3.57985 15.2043 21.0549
2 3.54511 17.122 21.4062
1 5.39084 17.0249 21.8842
1 3.52383 17.1834 23.4329
2 5.42852 17.11 23.8375
1 5.50495 15.1818 24.1988
1 5.52076 17.1032 25.8069
2 5.52781 15.1888 26.1973
1 3.59628 15.2193 26.5969
1 5.53481 15.1766 28.1801
2 3.62703 19.0158 -0.00704464
1 3.63187 20.9229 0.356132
1 3.63976 19.024 1.972
2 3.69846 20.9548 2.32767
1 5.58431 20.9487 2.75527
1 3.69856 21.001 4.33784
2 5.58359 20.6932 4.64104
1 5.56587 18.9317 5.17113
1 5.55465 21.1764 6.47847
2 5.54853 19.0363 7.10238
1 3.64219 19.0411 7.51309
1 5.57928 19.1447 9.07487
2 3.64399 19.0285 9.47952
1 3.57987 20.928 9.89901
1 3.67639 18.9462 11.465
2 3.53226 20.8392 11.8789
1 5.38452 20.9341 12.338
1 3.56309 20.9273 13.8807
2 5.44241 20.941 14.299
1 5.56057 19.0045 14.717
1 5.48761 20.9654 16.2781
2 5.5639 19.0419 16.6972
1 3.6505 19.0259 17.0623
1 5.55776 19.0511 18.6676
2 3.61867 19.0383 19.0435
1 3.56119 20.974 19.4559
1 3.62124 19.0284 21.0206
2 3.6041 20.9242 21.4416
1 5.52792 20.9699 21.8362
1 3.56298 20.8818 23.4178
2 5.51442 20.945 23.8147
1 5.53414 19.0266 24.2197
1 5.52686 20.9493 25.7939
2 5.51448 19.0266 26.2098
1 3.59405 19.0215 26.6528
1 5.53901 19.0195 28.2
2 3.60557 22.7929 28.5671
1 3.60727 24.6595 0.406178
1 3.62859 22.8491 1.93626
2 3.60216 24.7641 2.35295
1 5.55065 24.7998 2.74234
1 3.66819 24.7252 4.33939
2 5.55164 25.0462 4.62669
1 5.5274 24.671 6.51922
2 5.62155 22.8969 7.30863
1 3.76831 22.8881 7.62992
1 5.60258 22.8209 9.20753
2 3.6108 22.8922 9.55751
1 3.62576 24.8569 9.7071
1 3.58426 22.7346 11.4783
1 5.61165 24.9105 12.2967
1 3.58188 24.821 14.1407
2 5.47409 24.8065 14.291
1 5.48563 22.8834 14.6947
1 5.48565 24.8034 16.3013
2 5.47238 22.8804 16.6822
1 3.43356 22.8677 17.2778
1 5.62012 22.8633 18.6493
2 3.85264 22.8208 19.1604
1 3.54227 24.6663 19.4831
1 3.61981 22.8483 21.082
2 3.60395 24.8081 21.4301
1 5.53431 24.8791 21.7818
1 3.62639 24.8551 23.3809
2 5.54242 24.8094 23.798
1 5.51148 22.8762 24.2056
1 5.53571 24.7988 25.7826
2 5.52228 22.8739 26.1952
1 3.6 22.8284 26.5889
1 5.52699 22.8757 28.183
2 7.53255 -0.236471 -0.0044098
1 7.43702 1.69302 0.355914
1 7.46196 26.7254 1.97661
2 7.44088 1.6929 2.33028
1 9.39155 1.68978 2.43018
1 7.30951 1.68032 4.2702
1 9.40634 26.7126 5.2024
1 9.49446 1.62266 7.07523
2 9.23125 26.6864 7.04369
1 7.48173 26.6893 7.5593
1 9.66244 26.6507 8.87084
2 7.46937 -0.180352 9.47123
1 7.46873 1.67287 9.874
1 7.47129 -0.191854 11.4612
2 7.43727 1.69354 11.8877
1 9.37931 1.70109 12.2792
1 7.44976 1.6941 13.8547
2 9.39387 1.75715 14.2491
1 9.40938 -0.111493 14.7119
1 9.38825 1.70085 16.2578
2 9.42536 26.7272 16.6532
1 7.46421 -0.248084 16.7755
1 9.4975 -0.116651 18.5926
1 7.57264 -0.0809662 21.2044
2 7.17816 1.69266 21.5458
1 7.65565 1.73255 23.3221
2 9.42316 1.71403 24.0404
1 9.40137 -0.213758 24.2537
1 9.40239 1.70308 25.9047
2 9.3525 26.7181 26.2386
1 7.4847 26.721 26.6081
1 9.39696 26.7203 28.2406
2 7.45724 3.61969 -0.0335043
1 7.45186 5.53837 0.354469
1 7.47022 3.62163 1.95482
2 7.45443 5.5553 2.31698
1 9.38008 5.52904 2.69569
1 7.5055 5.60614 4.30932
2 9.34345 5.3412 4.61276
1 9.38401 3.61386 5.23957
1 9.37286 5.76969 6.48061
2 9.38922 3.57396 7.14154
1 7.474 3.59973 7.50784
1 9.38304 3.65248 9.09735
2 7.45558 3.60097 9.49607
1 7.45564 5.51759 9.8949
1 7.44325 3.59308 11.4805
2 7.48756 5.51124 11.8834
1 9.40544 5.52594 12.2891
1 7.47943 5.52149 13.8664
2 9.40498 5.52225 14.266
1 9.39389 3.62385 14.672
1 9.39686 5.5082 16.2684
2 9.40614 3.59191 16.6507
1 7.44619 3.61411 17.0616
1 9.35123 3.56155 18.6211
2 7.44852 3.84149 18.9436
1 7.46289 5.60042 19.4951
1 7.56018 3.33321 20.782
2 7.46467 5.52811 21.4205
1 9.57263 5.49853 22.0363
1 7.37685 5.50582 23.3372
2 9.12975 5.52252 23.9017
1 9.45854 3.64736 24.259
1 9.37421 5.53944 25.8024
2 9.41537 3.63247 26.2556
1 7.49579 3.6154 26.6209
1 9.4088 3.62814 28.2183
2 7.44725 7.45533 -0.0326936
1 7.47315 9.38469 0.368157
1 7.51818 7.47653 1.95103
2 7.54835 9.36286 2.32775
1 9.68403 9.33236 3.02825
1 7.38672 9.34591 4.27905
2 9.08331 9.71146 4.73261
1 9.46708 9.15833 6.44581
2 9.39398 7.463 7.31706
1 7.47293 7.47953 7.54692
1 9.38409 7.4725 9.18836
2 7.43201 7.40652 9.52882
1 7.45833 9.26888 9.9042
1 7.46457 7.42165 11.5228
2 7.48232 9.32394 11.8863
1 9.40228 9.44973 12.3041
1 7.48746 9.41995 13.8575
2 9.39984 9.35697 14.2963
1 9.38841 7.42484 14.6404
1 9.36651 9.25271 16.2617
2 9.305 7.38867 16.644
1 7.43388 7.43638 17.0765
1 9.39463 7.46128 18.651
2 7.50574 7.49102 19.0632
1 7.46419 9.37576 19.4451
1 7.52202 7.43662 21.0635
2 7.52234 9.31379 21.4655
1 9.40633 9.38618 21.8485
1 7.50021 9.35741 23.4699
2 9.40795 9.36002 23.8317
1 9.45558 7.40226 24.2127
1 9.3739 9.3733 25.7978
2 9.41892 7.46572 26.2016
1 7.57798 7.4625 26.6623
1 9.39202 7.44529 28.2356
2 7.38223 11.3161 -0.019588
1 7.44992 13.2388 0.376982
1 7.52723 11.2809 1.97058
2 7.47454 13.2384 2.34384
1 9.40247 13.2446 2.75031
1 7.47631 13.204 4.32545
2 9.41715 13.2378 4.73763
1 9.51664 11.3955 5.20948
1 9.42589 13.2338 6.79372
2 9.45888 11.3455 7.13357
1 7.50376 11.2357 7.42407
1 9.27587 11.3574 9.05397
2 7.4673 11.0406 9.38915
1 7.48376 11.2205 11.3116
1 9.51897 13.2403 12.0737
1 7.60934 13.3692 14.2243
2 9.34171 12.8304 13.8392
1 9.37319 11.3162 14.8572
2 9.31863 11.0205 16.7711
1 7.48063 11.3717 17.0838
1 9.35072 11.3117 18.6869
2 7.43044 11.3397 19.0756
1 7.43098 13.2957 19.2539
1 7.47821 11.1871 21.0018
1 9.50169 13.2942 21.8646
1 7.45258 13.2546 23.6851
2 9.39726 13.162 23.8122
1 9.37282 11.2875 24.1991
1 9.39656 13.2078 25.8294
2 9.3592 11.2991 26.194
1 7.4253 11.3205 26.6018
1 9.24817 11.3052 28.1464
2 7.4586 15.1694 28.5929
1 7.45545 17.0999 0.363425
1 7.47454 15.1754 1.95014
2 7.46287 17.1101 2.32996
1 9.38518 17.1027 2.74428
1 7.51864 17.1537 4.32093
2 9.3898 16.8328 4.64442
1 9.3943 15.0821 5.18559
1 9.37001 17.3628 6.48745
2 9.39282 15.1512 7.12101
1 7.48509 15.1789 7.50556
1 9.3474 15.1014 9.10898
2 7.45563 15.3163 9.41861
1 7.45923 17.0941 9.86743
1 7.37736 15.2683 11.3478
2 7.72743 17.0855 11.7705
1 9.48125 17.0836 12.2946
1 7.33153 17.0828 13.6447
2 9.35849 17.337 14.1514
1 9.35493 17.0652 16.0297
2 9.41197 15.549 17.0202
1 7.58998 15.0909 16.981
1 9.37717 15.1609 18.8079
2 7.45175 15.1501 18.8823
1 7.49565 17.0282 19.196
1 9.53505 17.0785 21.5618
1 7.3121 17.0788 23.6288
1 9.40187 15.0262 24.2745
1 9.37527 17.0978 26.099
2 9.38356 15.1509 26.2177
1 7.45945 15.171 26.6029
1 9.37808 15.1624 28.2062
2 7.45577 19.0276 -0.0398266
1 7.45185 20.9547 0.348696
1 7.46282 19.0357 1.95412
2 7.47584 20.9639 2.30812
1 9.3826 20.9443 2.73613
1 7.49823 21.0214 4.33613
2 9.37007 20.9638 4.59523
1 9.37851 20.9597 6.45443
2 9.37209 19.1169 7.29885
1 7.46745 19.129 7.526
1 9.32133 19.1444 9.18828
2 7.42974 18.8746 9.43744
1 7.36863 18.9065 11.3628
1 9.52173 20.9427 12.0054
1 7.30988 20.9754 14.1137
1 9.35572 19.0785 14.7198
1 9.50753 21.0195 16.5811
2 9.4028 19.0903 16.6474
1 7.49496 19.032 17.0584
1 9.43457 18.9984 18.6411
2 7.48989 19.0042 19.0471
1 7.52802 20.9523 19.4368
1 7.45557 19.1623 20.9865
2 7.46891 21.0328 21.4534
1 9.4066 20.9628 21.8759
1 7.44933 20.9736 23.4188
2 9.36929 21.0377 23.8382
1 9.36831 19.165 24.2666
1 9.35632 20.985 25.8202
2 9.31139 19.0418 26.2053
1 7.43208 19.025 26.6041
1 9.35757 19.0449 28.216
2 7.45251 22.8804 -0.0444706
1 7.46163 24.8059 0.362219
1 7.47168 22.8738 1.93777
2 7.46232 24.7819 2.32436
1 9.37726 24.7977 2.74237
1 7.45925 24.6757 4.34854
2 9.36595 24.9788 4.62311
1 9.40602 24.6007 6.50637
2 9.35078 22.8272 7.32919
1 7.48919 22.8697 7.58144
1 9.31895 22.7779 9.22545
2 7.46071 23.1509 9.483
1 7.45793 24.9582 9.85916
1 7.44591 23.0128 11.3595
2 7.51297 24.8921 11.8831
1 9.42035 24.7989 11.9777
1 7.34464 24.7739 13.8317
1 9.43021 22.899 14.7608
1 9.52616 24.7692 16.6131
2 9.16119 22.8926 16.5856
1 7.38799 22.8765 17.0347
1 9.61535 22.8153 18.464
2 7.53725 22.8002 18.991
1 7.53333 24.6675 19.464
1 7.48978 22.8932 21.0113
2 7.46902 24.8696 21.4047
1 9.3732 24.807 21.8228
1 7.45476 24.8212 23.394
2 9.37722 24.8275 23.816
1 9.36999 22.9137 24.2159
1 9.36637 24.8056 25.7989
2 9.30799 22.8918 26.1968
1 7.43018 22.8848 26.608
1 9.36213 22.8925 28.2025
2 11.3289 -0.238822 28.5879
1 11.3732 1.67548 0.346919
1 11.3349 26.7264 1.93229
2 11.3281 1.6913 2.33047
1 13.2457 1.70266 2.71983
1 11.4613 1.72693 4.27522
2 13.314 1.71187 4.73423
1 13.1903 26.7156 4.87059
1 13.1436 1.82585 6.65465
1 13.173 26.7286 9.28422
2 11.3363 26.7152 9.72322
1 11.2942 1.67039 9.91719
1 11.3122 26.7253 11.5909
2 11.2983 1.70391 11.8781
1 13.243 1.68873 12.1914
1 11.3316 1.70321 13.8361
2 13.2495 1.6558 14.0698
1 13.2416 -0.0786737 14.892
2 13.2364 26.4338 16.736
1 11.3801 -0.176962 17.0435
1 13.2347 -0.23467 18.6343
2 11.3594 -0.170832 19.0613
1 11.3304 1.70188 19.4572
1 11.235 -0.140233 21.0725
2 11.6033 1.71457 21.3509
1 13.3693 1.61629 21.8603
1 11.1443 1.71203 23.207
2 13.2205 1.71869 23.8035
1 13.1904 -0.18452 24.191
1 13.2627 1.70057 25.7693
2 12.973 -0.133889 26.1118
1 11.2224 -0.236002 26.6369
1 13.4462 -0.218737 27.9598
2 11.3369 3.60041 -0.0313157
1 11.3934 5.51473 0.37564
1 11.3391 3.63244 1.96929
2 11.3332 5.56012 2.34302
1 13.4074 5.52907 2.96409
1 11.1754 5.67596 4.29922
2 12.9508 5.5979 4.81159
1 13.2827 3.71368 5.11704
1 13.2136 5.59774 6.69855
2 13.1811 3.70781 7.12745
1 11.2864 3.68085 7.50354
1 13.1941 3.61158 9.11847
2 11.294 3.61661 9.50653
1 11.317 5.5536 9.90663
1 11.3043 3.61764 11.4811
2 11.3194 5.54035 11.8847
1 13.2388 5.49534 12.2818
1 11.344 5.50101 13.8822
2 13.2449 5.5432 14.256
1 13.2606 3.36415 14.9143
1 13.3491 5.54095 16.1731
2 13.2581 3.8039 16.7743
1 11.3674 3.55698 17.061
1 13.2577 3.56444 18.6717
2 11.2907 3.58216 19.0137
1 11.3274 5.51464 19.3341
1 11.287 3.58762 20.9991
2 11.2991 5.51862 21.2132
1 13.0379 5.53997 22.0379
2 13.4968 5.52884 23.8957
1 13.1359 3.65734 24.2086
1 13.3212 5.58163 25.7968
2 13.2516 3.62596 26.2081
1 11.3365 3.62978 26.6118
1 13.2564 3.60642 28.1877
2 11.3253 7.35288 28.5445
1 11.3903 9.22123 0.277431
1 11.4304 7.45731 1.90401
2 11.404 9.38946 2.13033
1 13.2488 9.38684 2.95984
2 13.2607 9.36061 4.82229
1 13.3065 7.50204 5.09482
1 13.2754 9.41096 6.69363
2 13.257 7.49038 7.12597
1 11.3043 7.47389 7.52535
1 13.131 7.48412 9.05359
2 11.2737 7.49152 9.54301
1 11.3578 9.45043 9.90842
1 11.3216 7.48127 11.4981
2 11.331 9.4015 11.9053
1 13.2477 9.42325 12.2618
1 11.3202 9.41783 13.8944
2 13.255 9.43076 14.2537
1 13.2457 7.49335 14.3689
1 13.4113 9.60962 16.2206
1 11.1925 7.47003 17.0753
1 13.2666 7.47711 18.8549
2 11.3315 7.48277 19.004
1 11.345 9.41321 19.4131
1 11.3034 7.44144 20.9732
2 11.2805 9.37775 21.4214
1 13.1525 9.3934 21.8499
1 11.3127 9.36779 23.452
2 13.2583 9.36798 23.7929
1 13.2162 7.42567 24.2036
1 13.3533 9.32774 25.7688
2 13.0112 7.46957 26.1153
1 11.2528 7.42919 26.6202
1 13.4455 7.45682 27.9693
1 11.3117 13.3804 0.419827
1 11.3472 11.2846 2.25615
2 11.3282 13.247 2.35455
1 13.2617 13.2705 2.72211
1 11.3488 13.2543 4.32889
2 13.2604 13.2488 4.69203
1 13.2945 11.2382 5.04712
1 13.2659 13.2043 6.67174
2 13.2923 11.3175 6.93072
1 11.5222 11.2864 7.73685
2 11.0321 11.3283 9.60233
1 11.4332 13.1895 9.86566
1 11.3107 11.3342 11.5028
2 11.4182 13.2745 11.8316
1 13.2408 13.255 12.3
1 11.1743 13.3168 13.8779
2 13.1217 13.2726 14.2722
1 13.1725 11.369 14.6609
1 13.2866 13.2382 16.2569
2 12.9328 11.4107 16.5785
1 11.1549 11.3862 17.0793
1 13.3677 11.3266 18.443
2 11.3099 11.3236 19.0376
1 11.3676 13.2102 19.4434
1 11.33 11.3117 21.0086
2 11.3856 13.2286 21.419
1 13.2704 13.2074 21.8009
1 11.329 13.2078 23.4064
2 13.2034 13.2177 23.8133
1 13.2718 11.2703 24.2006
1 13.2057 13.1908 25.7954
2 13.2017 11.2701 26.1894
1 11.2977 11.2679 26.2942
1 13.3666 11.3134 28.1574
2 11.2952 15.2545 28.5922
1 11.3078 17.1339 0.356088
1 11.2987 15.2043 1.96496
2 11.3028 17.1227 2.32833
1 13.2078 17.0974 2.72756
1 11.2598 17.1728 4.32713
2 13.1827 17.1137 4.72114
1 13.2046 15.1839 5.14022
1 13.2584 17.1278 6.71226
2 13.1928 15.1721 7.11494
1 11.2884 15.2178 7.52377
1 13.2253 15.1848 9.11602
2 11.3025 15.1486 9.4948
1 11.2612 17.1008 9.88116
1 11.3468 15.1693 11.4498
2 11.349 17.0848 11.8674
1 13.2126 17.1039 12.2871
1 11.2784 17.0493 13.9026
2 13.2108 17.093 14.2905
1 13.2152 15.1714 14.6913
1 13.2076 17.0907 16.2819
2 13.2268 15.1584 16.6644
1 11.2196 15.0799 17.0639
1 13.2422 15.1526 18.6234
2 11.3452 15.0922 19.0871
1 11.3302 16.9848 19.4325
1 11.3607 15.1382 21.0645
2 11.4067 17.0793 21.3871
1 13.2911 17.1066 21.7892
1 11.4755 17.1275 23.3307
2 13.329 17.0833 23.8136
1 13.22 15.1441 24.2097
1 13.2334 16.9681 25.7511
2 13.159 15.0777 26.2103
1 11.2935 15.1703 26.6132
1 13.2104 15.1721 28.2216
2 11.301 19.0434 -0.0299764
1 11.3198 20.9598 0.346986
1 11.2922 19.0435 1.96295
2 11.314 20.9583 2.32615
1 13.2262 20.9369 2.75074
1 11.2407 20.9624 4.34611
2 13.223 20.9325 4.71361
1 13.2268 19.0346 5.15819
1 13.3365 20.9388 6.72542
2 13.2188 19.0315 7.12689
1 11.2574 19.0817 7.51774
1 13.1513 19.007 9.06232
2 11.2714 19.042 9.51841
1 11.3744 20.9713 9.88714
1 11.3244 19.0246 11.4897
2 11.4083 20.9511 11.86
1 13.3062 20.9324 12.2559
1 11.4849 20.9787 13.8051
2 13.3252 20.9366 14.2714
1 13.2298 19.0201 14.6891
1 13.2508 20.9854 16.2588
2 13.2323 19.0435 16.6536
1 11.3113 18.9927 17.0575
1 13.198 19.0988 18.6463
2 11.3267 18.7633 18.9602
1 11.313 19.2147 20.8147
2 11.325 20.9355 21.6709
1 13.2421 20.9479 21.8291
1 11.3227 20.9464 23.5392
2 13.2663 20.9602 23.8228
1 13.2756 19.0191 23.8984
1 13.2659 20.9549 25.7083
1 11.1771 19.0482 26.6644
1 13.2581 19.023 28.4988
2 11.301 22.8883 -0.0294645
1 11.3569 24.82 0.349995
1 11.2789 22.8754 1.9533
2 11.302 24.794 2.33528
1 13.2 24.7897 2.74778
1 11.2586 24.7187 4.34717
2 13.2203 24.773 4.72082
1 13.2081 22.8277 5.13157
1 13.2537 24.6116 6.67745
2 12.9575 22.7702 7.04224
1 11.201 22.8377 7.59336
1 13.4651 22.8417 8.87904
2 11.3188 22.8728 9.53083
1 11.3733 24.7822 9.90553
1 11.3741 22.8757 11.4876
2 11.3528 24.7873 11.912
1 13.2844 24.8295 12.311
1 11.4962 24.817 13.8571
2 13.3449 24.8206 14.3113
1 13.3661 22.8608 14.6762
1 13.2322 24.641 16.2786
2 13.6468 22.8101 16.6023
1 12.9623 22.803 18.4256
2 11.2856 23.1683 19.1566
1 11.3149 24.9426 19.5176
1 11.3269 22.7059 20.9297
2 11.2351 24.8841 21.4571
1 13.1058 24.8922 21.8296
1 11.2967 24.8056 23.4225
2 13.2414 24.8305 23.796
1 13.2467 22.9044 23.8956
1 13.3476 25.0256 25.7559
1 11.1807 22.8935 26.6616
1 13.2471 22.8718 28.4913
2 15.1617 26.7285 0.157352
1 15.1645 1.67233 0.386456
1 15.1569 26.7291 2.02975
2 15.1036 1.71541 2.35187
1 16.9637 1.67949 2.79057
1 15.1676 1.69153 4.35992
2 17.0925 1.63763 4.74024
1 17.0978 26.7201 5.14539
1 17.1459 1.70966 6.76659
2 17.1584 26.7151 7.09907
1 15.2939 -0.218674 7.54132
1 17.0769 26.7052 9.10065
2 15.1364 26.7061 9.48601
1 15.1745 1.65643 9.86437
1 15.1581 26.7295 11.4746
2 15.1804 1.66378 11.83
1 17.0817 1.69273 12.2607
1 15.1652 1.61818 13.8177
2 16.9929 1.93413 14.1786
1 17.0762 1.49343 16.0525
2 17.1015 26.7169 16.8514
1 15.1259 -0.19358 17.0178
1 16.9466 26.7179 18.7094
2 15.0843 26.7179 18.9149
1 15.1593 1.5081 19.6745
2 15.1807 1.93758 21.5424
1 16.9856 1.5533 21.8864
1 15.1555 1.75367 23.4845
2 17.055 1.6682 23.8338
1 17.1596 -0.21814 24.2043
1 17.0712 1.64603 25.7877
2 17.3054 26.7284 26.1072
1 16.8687 -0.240188 27.9591
2 15.1688 3.59566 28.5633
1 15.1699 5.55192 0.294696
1 15.1746 3.63297 1.90579
2 15.1339 5.53886 2.16428
1 16.818 5.5931 3.02895
2 17.4027 5.241 4.72634
1 17.0649 3.52242 5.1585
1 17.0935 5.68949 6.49516
2 16.8117 3.60449 7.01704
1 15.0414 3.62868 7.50455
1 17.0067 3.65944 8.8804
2 15.1046 3.52805 9.48563
1 15.1692 5.38707 9.94116
1 15.1836 3.57306 11.4868
2 15.1533 5.521 11.8818
1 17.0574 5.5327 12.2338
1 15.1387 5.49401 13.8766
2 17.0407 5.54927 14.263
1 17.0922 3.68097 14.704
1 16.983 5.40882 16.2708
2 17.0725 3.48075 16.6611
1 15.1389 3.46477 17.1002
1 17.0915 3.50914 18.6538
2 15.1747 3.59637 19.0768
1 15.1123 5.57061 19.4459
1 15.1535 3.71356 21.0224
2 15.076 5.58465 21.4528
1 16.9932 5.53612 21.8422
1 15.257 5.51187 23.4051
2 17.1455 5.51218 23.7973
1 17.1733 3.55875 24.1943
1 17.0136 5.52378 25.7892
2 17.0899 3.60067 26.1997
1 15.1677 3.59184 26.5873
1 17.0745 3.6082 28.1931
2 15.1857 7.47337 0.0992661
1 15.1692 9.39591 0.301689
1 15.1049 7.47883 1.97139
2 15.0824 9.40722 2.17295
1 16.7746 9.33695 3.0437
2 17.4292 9.70566 4.70484
1 17.0302 9.21276 6.43024
2 17.0807 7.46941 7.32743
1 15.1924 7.45493 7.16342
1 17.2374 7.48628 9.18051
1 15.1745 9.62684 9.92779
1 15.1526 7.47096 11.7714
2 15.1683 9.41198 11.8924
1 17.0872 9.39796 12.2632
1 15.1617 9.41846 13.8737
2 17.0696 9.34387 14.2531
1 17.053 7.45205 14.4204
1 16.9023 9.55239 16.2316
1 16.8035 7.47684 18.6372
2 15.082 7.48488 19.2422
1 15.148 9.39907 19.5314
1 15.2037 7.49397 21.1266
2 14.9385 9.38829 21.4185
1 15.3469 9.38359 23.2639
2 17.0806 9.44106 24.0571
1 17.1549 7.45389 24.2244
1 16.9343 9.15122 25.89
2 17.3835 7.33176 26.1382
1 16.9356 7.43054 27.9915
2 15.2594 11.3404 28.5707
1 15.1916 13.2596 0.352212
1 15.1645 11.3145 1.93908
2 15.199 13.2583 2.32828
1 17.1758 13.3477 2.69214
1 15.1853 13.3009 4.30395
2 17.1064 13.3275 4.68449
1 17.0109 11.429 5.06623
1 17.1104 13.2916 6.70337
2 16.9942 11.3522 6.92393
1 15.2122 11.3188 7.74821
2 15.1764 11.4407 9.61585
1 15.1908 13.2634 9.86164
1 15.162 11.3708 11.4933
2 15.1663 13.2748 11.9001
1 17.0979 13.2316 11.968
1 15.0269 13.2624 13.8404
1 17.1023 11.2279 14.6712
1 17.0101 13.2409 16.5434
2 17.3055 11.3848 16.5553
1 16.6219 11.329 18.2938
2 15.0553 11.3208 19.288
1 15.1754 13.2283 19.5433
1 15.2741 11.2875 21.1518
2 15.2201 13.2602 21.5009
1 17.2902 13.2959 22.0714
1 15.0828 13.2641 23.4373
2 16.8494 13.2387 23.9291
1 17.1822 11.3611 23.9466
1 17.265 13.4663 25.7663
1 15.0927 11.3614 26.6113
1 17.1659 11.3889 28.5222
2 15.1393 15.1713 28.5574
1 15.2111 17.0862 0.372401
1 15.2337 15.1929 1.92133
2 15.1291 17.0846 2.34059
1 17.4323 16.9652 2.95365
1 15.0899 17.0934 4.28425
2 16.8664 17.0673 4.76764
1 17.1765 15.2112 5.14416
1 17.1573 17.0748 6.6745
2 16.8521 15.1773 7.03401
1 15.0786 15.1857 7.52801
1 17.295 15.162 8.88167
2 15.1772 15.1874 9.47699
1 15.242 17.1261 9.88294
1 15.1807 15.1808 11.4468
2 15.0801 17.0903 11.8683
1 16.9341 17.1067 12.3139
1 15.1135 17.0941 13.8777
2 16.9954 17.1707 14.2768
1 17.0488 15.2978 14.7288
1 17.0568 17.1144 16.3071
2 17.066 15.1693 16.664
1 15.1656 15.1809 17.0822
1 17.1357 15.1192 18.6645
2 15.1809 15.1528 19.0528
1 15.1657 17.0914 19.4322
1 15.2055 15.1638 21.0369
2 15.1849 17.0885 21.4218
1 17.0866 17.0777 21.8092
1 15.2108 17.0637 23.4364
2 17.1238 17.094 23.7956
1 17.1426 15.1567 24.1918
1 17.1684 17.0802 25.7825
2 16.7771 15.2684 26.0768
1 15.0164 15.1521 26.5702
1 17.0527 15.1813 27.9581
2 15.2111 19.0105 -0.0255486
1 15.1803 20.9361 0.356024
1 15.2354 18.9909 1.96517
2 15.1624 20.9384 2.33528
1 17.0735 20.976 2.73516
1 15.146 20.9182 4.32288
2 17.0246 20.9338 4.69836
1 17.182 18.9523 5.04821
1 17.0371 20.961 6.65949
2 17.1352 19.0286 6.92881
1 15.4064 19.0038 7.74104
2 14.915 19.0275 9.58401
1 15.2308 20.9169 9.93711
1 15.161 19.0098 11.4762
2 15.2039 20.9324 11.9225
1 17.11 20.928 12.2758
1 15.1974 20.9202 13.8922
2 17.1171 20.8981 14.2472
1 17.0651 19.0374 14.6915
1 17.0959 20.9625 16.2536
2 17.0707 19.0342 16.6681
1 15.1423 19.041 17.0664
1 17.07 19.0463 18.639
2 15.1483 19.0513 19.0383
1 15.1517 20.995 19.4242
1 15.1811 19.0136 21.0045
2 15.1711 20.8806 21.4599
1 17.0828 20.9336 21.8504
1 15.1793 20.9511 23.439
2 17.1017 20.9545 23.8249
1 17.1082 19.0204 24.2176
1 17.1205 20.9529 25.7933
2 17.2005 19.0148 26.1878
1 15.3439 19.0108 26.6713
1 17.1664 18.9627 28.2213
2 15.1903 22.8802 -0.0264847
1 15.1582 24.8132 0.396333
1 15.1645 22.8659 1.95241
2 15.0795 24.7795 2.36639
1 16.9495 24.8079 2.80214
1 15.1296 24.7753 4.35743
2 17.0687 24.8021 4.7371
1 17.108 22.8665 5.11431
1 17.0238 24.7435 6.72065