1650
Atoms. Timestep: 1352
2 26.8832 -0.239099 -0.0347277
1 26.8488 1.63454 0.38275
1 -0.34661 26.875 1.92533
2 -0.344723 1.60983 2.36697
1 1.59884 1.59812 2.77534
1 -0.345812 1.59124 4.34398
2 1.58815 1.57708 4.74857
1 1.51533 26.7723 5.13919
1 1.57538 1.60477 6.7195
2 1.50068 -0.281532 7.1378
1 26.8026 26.802 7.21139
1 1.6649 26.8369 9.1103
1 -0.336314 1.74944 9.96823
1 26.8619 26.8233 11.7984
2 -0.253815 1.60056 11.8966
1 1.62248 1.58026 12.2808
1 -0.300392 1.60914 13.9211
2 1.61415 1.57115 14.2763
1 1.58108 26.7811 14.6629
1 1.76518 1.35366 16.2357
2 1.3345 26.7066 16.5624
1 26.7366 26.7455 17.0669
1 1.7157 26.7657 18.448
2 -0.36329 -0.175907 18.9265
1 -0.315963 1.55902 19.4385
1 -0.31973 26.5305 20.7523
2 26.72 1.54358 21.368
1 1.40035 1.52459 21.5474
1 26.6588 1.53418 23.2948
1 1.62529 26.6452 24.2812
1 1.59764 1.61388 26.0882
2 1.60174 -0.304202 26.1657
1 -0.321472 26.8254 26.5531
1 1.61729 26.7155 28.172
2 26.8361 3.55499 28.5517
1 26.8422 5.49292 0.406957
1 26.8406 3.53897 1.9768
2 -0.254459 5.42861 2.37933
1 1.62204 5.49073 2.77171
1 26.8642 5.47582 4.36487
2 1.61424 5.47759 4.75101
1 1.58127 3.5352 5.12837
1 1.61049 5.47695 6.72048
2 1.5853 3.547 7.10974
1 -0.36916 3.58447 7.50386
1 1.43265 3.5659 9.04992
2 26.7421 3.62737 9.51458
1 26.7705 5.52734 9.90462
1 26.8466 3.5795 11.503
2 -0.350692 5.4977 11.898
1 1.58729 5.50257 12.2779
1 -0.341541 5.49211 13.8764
2 1.58941 5.49355 14.2588
1 1.61686 3.5291 14.4197
1 1.66624 5.60182 16.2024
1 26.7107 3.56894 17.089
1 1.61728 3.61953 18.8725
2 -0.303615 3.32967 18.9478
1 -0.366896 3.46845 20.8534
1 1.76254 5.51596 21.8516
1 -0.218436 5.53796 23.6092
2 1.67184 5.55462 23.7969
1 1.60377 3.69852 24.2602
1 1.58217 5.52354 25.8134
2 1.59596 3.56552 26.1965
1 26.8436 3.51904 26.5848
1 1.60101 3.57425 28.172
2 -0.288312 7.45378 28.5614
1 -0.327674 9.41 0.404924
1 26.7115 7.44254 1.97905
2 -0.267878 9.42508 2.38115
1 1.62443 9.39263 2.76061
1 -0.321282 9.35702 4.3431
2 1.61379 9.35593 4.74015
1 1.60362 7.414 5.1412
1 1.60806 9.33606 6.70995
2 1.63283 7.4101 7.13102
1 -0.252889 7.41436 7.54369
1 1.61233 7.42917 9.13957
2 26.8522 7.43529 9.49562
1 26.8173 9.34705 9.91198
1 26.7986 7.43331 11.4742
2 -0.341172 9.37226 11.894
1 1.5835 9.35154 12.3071
1 26.8328 9.37044 13.8723
2 1.58565 9.37222 14.2855
1 1.58072 7.4509 14.6711
1 1.55749 9.38921 16.278
2 1.59355 7.4848 16.6561
1 -0.340531 7.39657 17.0479
1 1.54389 7.348 18.6423
2 -0.34398 7.61188 18.9531
1 -0.316786 9.385 19.3869
1 26.8254 7.49613 20.8688
2 -0.325249 9.40266 21.3575
1 1.56399 9.33243 21.806
1 26.7125 9.45161 23.3551
2 1.56564 9.27481 23.741
1 1.56038 7.42422 24.1814
1 1.60536 9.32602 25.7385
2 1.58746 7.43173 26.1787
1 26.7835 7.4706 26.6312
1 1.60781 7.43627 28.1474
2 26.47 11.2604 0.0981186
1 -0.383222 13.1623 0.316038
1 -0.397602 11.3151 1.96626
2 26.7955 13.2438 2.36045
1 1.49782 13.2408 2.77454
1 -0.363521 13.2523 4.37722
2 1.57741 13.2407 4.72005
1 1.62451 11.2883 5.10822
1 1.63402 13.0985 6.63716
2 1.60943 11.2195 7.11922
1 -0.293768 11.2668 7.50403
1 1.61784 11.2961 9.10546
2 -0.242668 11.2913 9.51012
1 -0.305486 13.2863 9.92935
1 -0.251965 11.321 11.4759
2 26.6745 13.1781 11.7887
1 -0.0615475 13.3367 13.659
2 1.65999 13.2044 14.4955
1 1.61855 11.3199 14.7103
1 1.5439 13.3382 16.3541
2 1.4966 11.3311 16.6693
1 26.796 11.3556 17.0428
1 1.51171 11.3864 18.662
2 -0.372353 11.1632 18.949
1 26.8335 11.275 20.8523
1 1.74995 13.2469 21.533
1 26.5683 13.0644 23.7207
1 1.60104 11.1355 24.1319
1 1.67751 13.0955 26.0394
2 1.66478 11.2245 25.9937
1 -0.0679364 11.2787 26.8288
2 -0.332002 15.1774 28.5209
1 26.7986 17.1259 0.349828
1 -0.364375 15.1489 1.91753
2 26.7923 17.0279 2.38942
1 1.51167 17.1176 2.78605
1 -0.368654 17.0945 4.38504
2 1.55216 17.1485 4.73067
1 1.70574 15.1994 4.81305
1 1.63221 17.2872 6.64683
1 26.7366 15.1885 7.56128
1 1.62774 15.1913 9.44632
2 -0.264403 15.1954 9.52057
1 26.8502 17.0906 9.95171
1 -0.257568 15.1521 11.7961
2 -0.324335 17.1988 11.8775
1 1.61246 17.1388 12.3577
1 26.8435 17.0349 13.8647
2 1.66927 17.194 14.2959
1 1.37098 15.1886 14.6628
1 1.57461 17.09 16.2512
2 1.96667 15.2293 16.5549
1 1.73257 15.1495 18.4362
1 -0.346237 17.2934 19.4534
1 26.8127 15.3373 21.1596
2 -0.302429 17.2211 21.4033
1 1.57848 17.1649 21.7731
1 26.8249 17.1375 23.3989
2 1.5098 17.2287 23.7878
1 1.5883 15.3506 23.9984
1 1.61333 17.3083 25.747
1 26.6453 15.1156 26.599
1 1.67462 15.1906 28.4015
2 -0.0652577 19.0461 0.0597402
1 26.7145 20.9307 0.0877251
1 26.8159 18.903 1.91033
1 1.79337 20.9907 2.81696
1 -0.171641 20.9934 4.5886
2 1.70831 21.0233 4.76108
1 1.64061 19.0863 5.12393
1 1.5889 21.052 6.72799
2 1.60658 19.1601 7.14095
1 26.8439 19.0728 7.51609
1 1.55248 19.0947 9.12079
2 26.8178 19.0686 9.50633
1 26.7861 21.0199 9.91927
1 -0.342215 19.0846 11.486
2 26.8242 20.9996 11.9216
1 1.59366 21.0209 12.2984
1 26.8403 21.0042 13.899
2 1.61139 21.0074 14.2715
1 1.63427 19.0794 14.7042
1 1.67545 21.0564 16.27
2 1.6185 19.0656 16.6622
1 26.8366 19.0978 17.0334
1 1.60491 19.0943 18.6151
2 -0.365477 19.1213 18.9924
1 26.8404 20.9616 19.4458
1 26.7754 19.1515 21.0391
2 -0.0763534 21.0359 21.3085
1 1.67797 21.0327 21.833
1 26.5757 21.1085 23.1157
2 1.60908 21.0206 23.7765
1 1.49629 19.1388 24.1852
1 1.5341 21.0002 25.7617
2 1.61901 19.1495 26.1975
1 26.6256 19.056 26.7764
1 1.70927 19.0763 28.1399
2 26.742 22.8415 -0.0591474
1 -0.169858 24.9306 0.264819
1 26.7618 23.1215 1.82451
2 26.8117 24.9926 2.16218
1 1.4224 24.9014 2.91001
2 1.81785 24.8919 4.77327
1 1.49414 23.0169 5.15441
1 1.7924 24.8686 6.74428
2 1.5113 22.9209 7.13734
1 26.6817 22.9497 7.72366
1 1.70132 22.9359 9.06426
2 -0.0660635 22.8526 9.59827
1 26.7459 24.6721 9.94364
1 26.8521 22.9127 11.5158
2 26.8325 24.879 11.9033
1 1.62563 24.8686 12.237
1 -0.173976 24.8546 13.8509
2 1.70712 24.8756 14.2412
1 1.61932 22.9477 14.6735
1 1.75616 24.863 16.2536
2 1.43604 22.9675 16.569
1 -0.332356 23.0286 17.0942
1 1.78134 22.9618 18.4581
2 -0.371926 22.6969 18.9124
1 26.7967 23.1415 20.7441
2 26.8044 24.85 21.6627
1 1.58322 24.8357 21.8579
1 -0.190128 24.8517 23.5149
2 1.69948 24.7943 23.8675
1 1.57608 22.9212 24.2069
1 1.63869 24.8643 26.0667
2 1.56407 22.8909 26.1495
1 -0.275694 22.9589 26.5898
1 1.57508 23.0386 28.2266
2 3.57193 -0.28214 28.5723
1 3.53496 1.61207 0.410882
1 3.52585 26.8161 1.98463
2 3.53385 1.60011 2.37979
1 5.47249 1.60357 2.76177
1 3.52872 1.5752 4.35497
2 5.48196 1.61585 4.73494
1 5.5056 26.8512 4.8691
1 5.48768 1.75539 6.67433
1 3.37441 26.6809 7.57704
1 5.50141 26.843 9.40262
2 3.58612 26.7991 9.52044
1 3.53267 1.46735 9.97708
1 3.53164 26.7815 11.4873
2 3.52992 1.57775 11.9118
1 5.44115 1.59664 12.2854
1 3.52456 1.57172 13.8947
2 5.43705 1.60368 14.2502
1 5.49553 -0.304653 14.659
1 5.37377 1.62436 16.2492
2 5.72376 -0.232553 16.5629
1 5.26071 -0.320296 18.4224
2 3.50218 -0.340554 19.2299
1 3.47832 1.59652 19.1063
1 3.52993 26.6799 21.0807
1 5.65947 1.60357 21.8455
1 3.69665 1.60305 23.6311
2 5.58269 1.61333 23.7972
1 5.4916 -0.305712 24.1732
1 5.48903 1.63232 25.7785
2 5.46657 -0.252208 26.1804
1 3.53506 26.8595 26.5857
1 5.4481 26.8411 28.1659
2 3.5393 3.55209 28.553
1 3.56436 5.49893 0.393969
1 3.54427 3.55208 1.97118
2 3.55698 5.49603 2.36754
1 5.50369 5.51712 2.75942
1 3.55029 5.48398 4.34164
2 5.48469 5.49309 4.74308
1 5.49737 3.57154 5.11634
1 5.47582 5.51015 6.72466
2 5.48999 3.62697 7.12724
1 3.53454 3.55568 7.22883
1 5.63103 3.55968 9.05962
1 3.54064 5.62378 9.96316
1 3.53472 3.54105 11.8007
2 3.52744 5.48812 11.9091
1 5.45969 5.4749 12.2952
1 3.51785 5.48249 13.8881
2 5.44215 5.45694 14.2663
1 5.47272 3.52554 14.6664
1 5.40526 5.39169 16.2591
2 5.72341 3.51026 16.5654
1 5.2673 3.53545 18.4195
2 3.51718 3.52445 19.2255
1 3.54511 5.48287 19.442
1 3.58539 3.68509 21.0776
2 3.62555 5.58762 21.4279
1 5.49803 5.50175 21.8102
1 3.58668 5.52409 23.4233
2 5.48881 5.48812 23.8077
1 5.48977 3.54959 24.1934
1 5.49424 5.49086 25.7874
2 5.48313 3.5538 26.1724
1 3.53682 3.55272 26.5739
1 5.4761 3.52923 28.1458
2 3.54872 7.45474 -0.00831209
1 3.49059 9.42783 0.417057
1 3.55135 7.44385 1.95582
2 3.55666 9.38102 2.38959
1 5.49628 9.39526 2.80778
1 3.54495 9.35707 4.35653
2 5.46524 9.36835 4.78843
1 5.46215 7.43262 5.14554
1 5.4884 9.36302 6.76099
2 5.4023 7.43318 7.11939
1 3.52273 7.43133 7.53573
1 5.45915 7.4492 9.12901
2 3.54164 7.49939 9.50996
1 3.52248 9.36759 9.91649
1 3.53058 7.42279 11.5119
2 3.51365 9.2984 11.9128
1 5.44568 9.34286 12.2634
1 3.51963 9.32248 13.8829
2 5.46884 9.2533 14.2568
1 5.46184 7.35412 14.6726
1 5.46777 9.17081 16.2165
2 5.44277 7.29159 16.6635
1 3.50861 7.42744 17.0631
1 5.42435 7.4099 18.6301
2 3.49881 7.41716 19.0299
1 3.48445 9.37739 19.4124
1 3.54605 7.46339 20.997
2 3.52216 9.37886 21.407
1 5.46656 9.37681 21.8171
1 3.53158 9.34346 23.3828
2 5.4756 9.35427 23.7964
1 5.49233 7.43344 24.2019
1 5.4485 9.37367 25.7844
2 5.47291 7.43894 26.1658
1 3.54899 7.42298 26.5872
1 5.52232 7.49357 28.1465
2 3.85252 11.3029 0.0830081
1 3.50028 13.216 0.424451
1 3.62952 11.3605 1.98115
2 3.27856 13.2551 2.32053
1 3.74927 13.2105 4.15007
2 5.48131 13.1787 4.97592
1 5.50828 11.2912 5.22418
1 5.53362 13.1797 6.87038
2 5.4669 11.2608 7.18797
1 3.52012 11.2758 7.48513
1 5.37475 11.2836 9.11799
2 3.49788 11.3025 9.50414
1 3.51007 13.2537 9.62646
1 3.44993 11.1923 11.4691
1 5.63604 13.2523 12.2793
1 3.50129 13.3281 14.0935
2 5.4378 12.9585 14.109
1 5.46142 11.1512 14.3552
1 5.51715 13.5964 15.8342
1 3.36487 11.354 17.1171
1 5.47557 11.3246 18.9269
2 3.50637 11.32 19.0478
1 3.56312 13.2675 19.3958
1 3.52478 11.3051 21.0116
2 3.63735 13.2432 21.3778
1 5.54794 13.2215 21.7888
1 3.71367 13.226 23.3274
2 5.57299 13.1442 23.7824
1 5.46509 11.275 24.2244
1 5.42384 13.2255 25.8124
2 5.47897 11.2919 26.1838
1 3.39041 11.2905 26.799
1 5.63128 11.2302 28.1329
2 3.55706 15.1609 0.186664
1 3.54866 17.0874 0.426239
1 3.69276 15.1747 2.0656
2 3.29214 17.128 2.30692
1 3.85181 17.2139 4.10774
2 5.46905 16.8198 4.88828
1 5.49565 15.0491 5.27348
1 5.48035 17.3032 6.65808
2 5.57705 15.1606 7.19377
1 3.71772 15.2481 7.56535
1 5.52074 15.1716 9.14178
2 3.56803 15.203 9.51521
1 3.51988 17.159 9.89325
1 3.48269 15.3018 11.469
2 3.51091 17.1737 11.8729
1 5.46745 17.1607 12.1079
1 3.6573 17.0503 13.9044
2 5.48532 17.5307 13.8915
2 5.5893 14.9058 17.0546
1 3.78233 15.3277 17.0295
1 5.52727 15.1576 18.8473
2 3.58774 15.2151 19.083
1 3.5314 17.1364 19.4191
1 3.51795 15.196 21.0331
2 3.54074 17.1385 21.4005
1 5.5092 17.1645 21.4947
1 3.38146 17.1624 23.3336
1 5.50966 15.0157 24.2392
1 5.40195 17.0325 26.0691
2 5.74458 15.1455 26.0969
1 5.27977 15.1419 27.9452
2 3.60346 19.0542 28.5368
1 3.56766 20.9922 0.406691
1 3.62151 19.014 1.95821
2 3.63723 20.9811 2.34803
1 5.50687 21.0064 2.75419
1 3.62742 20.9825 4.36832
2 5.49103 21.2445 4.6557
1 5.47089 20.8302 6.53955
2 5.46335 19.0793 7.3773
1 3.53106 19.0904 7.5803
1 5.35123 19.1802 9.22692
2 3.43634 19.0808 9.57233
1 3.52047 21.0033 9.9365
1 3.50897 19.0812 11.5501
2 3.54683 21.0232 11.9092
1 5.49605 20.9732 12.346
1 3.54469 21.0015 13.8801
2 5.46742 21.0399 14.3178
1 5.48056 19.0561 14.8748
1 5.37164 21.0865 16.2454
2 5.49003 19.3211 16.7561
1 3.60146 18.9859 17.0755
1 5.54737 19.149 18.6424
2 3.5473 19.0734 19.0433
1 3.54596 21.0197 19.4367
1 3.54445 19.0692 21.0055
2 3.58532 20.9812 21.4416
1 5.48712 20.9957 21.8355
1 3.52911 20.9934 23.4392
2 5.38877 21.0792 23.8486
1 5.46825 19.166 24.2318
1 5.45595 20.8858 25.7841
2 5.4857 18.9644 26.1746
1 3.56662 19.0743 26.5431
1 5.49504 19.0531 28.1522
2 3.57577 22.8861 28.5977
1 3.3129 24.8838 0.39767
1 3.5392 22.9688 2.01755
2 3.57941 24.8956 2.43543
1 5.50183 24.8871 2.75872
1 3.63715 24.9081 4.459
2 5.58433 24.9151 4.75231
1 5.53104 23.0076 5.13608
1 5.36759 24.7327 6.71309
2 5.54638 22.7843 7.08262
1 3.5938 23.0917 7.47763
1 5.53897 22.8213 9.06449
2 3.60203 22.8963 9.50879
1 3.5919 24.8618 9.72129
1 3.55296 22.9612 11.4683
2 3.54683 24.8792 11.8486
1 5.46969 24.8752 12.2471
1 3.56872 24.8999 13.8461
2 5.46397 24.9248 14.2591
1 5.46346 22.9805 14.3684
1 5.27891 25.1205 16.2207
1 5.44328 22.9053 18.8426
2 3.54874 22.9499 19.2411
1 3.53955 24.8678 19.4802
1 3.53195 22.9156 21.1129
2 3.52416 24.7996 21.4868
1 5.47144 24.8736 21.7853
1 3.56167 24.875 23.4377
2 5.48732 24.9294 23.7781
1 5.46019 22.9887 23.8965
1 5.47169 25.0584 25.721
1 3.38493 22.9295 26.6755
1 5.48197 22.9684 28.4733
2 7.32531 26.8331 0.0155398
1 7.40761 1.58536 0.404449
1 7.41124 26.8338 1.97909
2 7.43501 1.57376 2.38118
1 9.42103 1.53923 2.76442
1 7.43115 1.59057 4.33853
2 9.36163 1.57575 4.7468
1 9.36706 -0.356081 5.14025
1 9.35797 1.56435 6.71826
2 9.36823 26.8204 7.10289
1 7.53544 -0.352064 7.58589
1 9.36753 26.8427 9.13529
2 7.44336 -0.302518 9.53943
1 7.4186 1.60941 9.91553
1 7.4105 -0.315735 11.5334
2 7.32374 1.61022 11.8928
1 9.18292 1.61415 12.3572
1 7.36117 1.61725 13.921
2 9.28797 1.60895 14.2968
1 9.35587 -0.342065 14.6478
1 9.38775 1.59408 16.2613
2 9.41388 -0.3434 16.6475
1 7.48861 26.8592 17.0586
1 9.23937 -0.324836 18.6156
2 7.3069 -0.290206 19.0185
1 7.35302 1.60814 19.4021
1 7.38573 -0.31148 21.0027
2 7.53094 1.59435 21.3901
1 9.43156 1.5384 21.7887
1 7.48438 1.61576 23.3866
2 9.36704 1.59269 23.8078
1 9.31623 -0.329138 24.1806
1 9.33442 1.60452 25.7815
2 9.27131 26.8402 26.1672
1 7.37455 26.851 26.5714
1 9.19395 26.8277 28.1349
2 7.42385 3.487 0.000854909
1 7.41842 5.38065 0.433991
1 7.44277 3.49549 2.00623
2 7.42108 5.43605 2.37237
1 9.33499 5.51461 2.74881
1 7.42152 5.50759 4.33027
2 9.35881 5.46566 4.72912
1 9.36489 3.50235 5.11036
1 9.35251 5.32489 6.66168
2 9.36079 3.45019 7.12802
1 7.4512 3.53754 7.52051
1 9.37848 3.53577 9.12177
2 7.50027 3.54532 9.52572
1 7.4217 5.48591 9.91922
1 7.40349 3.54504 11.493
2 7.36119 5.48768 11.9036
1 9.25235 5.49181 12.357
1 7.3687 5.46118 13.919
2 9.28817 5.47408 14.2968
1 9.39096 3.56453 14.6787
1 9.38016 5.4823 16.2553
2 9.40644 3.53581 16.6645
1 7.50423 3.52149 17.0741
1 9.3739 3.51379 18.6631
2 7.43378 3.53087 19.0201
1 7.35308 5.44903 19.4362
1 7.4387 3.51885 20.9899
2 7.36395 5.42038 21.409
1 9.30232 5.68557 21.7343
1 7.39889 5.45826 23.3885
2 9.26132 5.46528 23.8246
1 9.35348 3.53442 24.1966
1 9.34553 5.49774 25.7779
2 9.36362 3.53686 26.1736
1 7.42587 3.54494 26.5823
1 9.37612 3.51643 28.1482
2 7.41941 7.14578 28.4523
1 7.41888 7.67777 1.72185
2 7.41755 9.40801 2.56679
1 9.34218 9.38785 2.77922
1 7.41836 9.36058 4.44373
2 9.37244 9.36391 4.73086
1 9.36192 7.41878 4.83128
1 9.37954 9.54116 6.63982
1 7.27491 7.42256 7.58976
1 9.34182 7.42675 9.44755
2 7.40265 7.43895 9.5288
1 7.45535 9.41111 9.91509
1 7.36886 7.43062 11.4944
2 7.34002 9.35536 11.891
1 9.21468 9.34355 12.345
1 7.39541 9.30917 13.885
2 9.347 9.32891 14.2891
1 9.38927 7.3855 14.6557
1 9.34945 9.33494 16.2778
2 9.33668 7.40807 16.7475
1 7.38603 7.37369 17.0498
1 9.16903 7.41943 18.7951
2 7.27998 7.41774 19.0157
1 7.39569 9.37774 19.4524
1 7.54123 7.42959 20.9946
2 7.36081 9.42288 21.4179
1 9.36538 9.16313 21.7676
1 7.42441 9.38766 23.3744
2 9.38072 9.39122 23.7827
1 9.3658 7.43304 24.1223
1 9.36341 9.36174 25.7477
2 9.36797 7.44063 26.1319
1 7.41892 7.4214 26.5583
1 9.31196 7.47477 28.1278
2 7.46759 11.605 28.4363
1 7.38202 13.3736 0.415379
1 7.41206 11.1854 1.76363
2 7.67613 13.2701 2.2634
1 9.44041 13.2774 2.76337
1 7.1807 13.1926 4.0709
2 9.35938 13.2891 4.69267
1 9.31729 11.3626 5.04331
1 9.31609 13.2883 6.64464
2 9.31553 11.415 6.9362
1 7.60809 11.3077 7.76341
2 7.14703 11.2963 9.61543
1 7.51061 13.1684 9.90958
1 7.41086 11.3023 11.5128
2 7.522 13.2561 11.8837
1 9.38686 13.2718 12.3294
1 7.42038 13.3063 13.875
2 9.3438 13.2308 14.2862
1 9.35273 11.2692 14.6432
1 9.343 13.1528 16.2208
2 9.44207 11.2547 16.6341
1 7.5633 11.3015 17.1213
1 9.41069 11.3433 18.6547
2 7.4444 11.307 19.0562
1 7.44105 13.25 19.3951
1 7.47959 11.3247 21.0306
2 7.47093 13.2466 21.4091
1 9.43637 13.3092 21.8279
1 7.46655 13.2215 23.3974
2 9.39323 13.2338 23.8118
1 9.38757 11.3078 24.18
1 9.37623 13.226 25.7944
2 9.38994 11.2893 26.1594
1 7.44997 11.3338 26.5311
1 9.31797 11.2653 28.1552
2 7.39432 15.2353 28.5282
1 7.39049 17.1078 0.391448
1 7.26433 15.2252 1.99188
2 7.64734 17.1282 2.28464
1 9.40789 17.0983 2.82279
1 7.0717 17.2077 4.08495
2 9.40714 17.1353 4.75892
1 9.26546 15.2152 5.10545
1 9.33239 17.1245 6.71011
2 9.36602 15.1963 7.1151
1 7.44462 15.2052 7.52445
1 9.37209 15.1582 9.09683
2 7.44719 15.0728 9.4972
1 7.43017 16.9725 9.89566
1 7.44059 15.1587 11.4771
2 7.39957 17.1333 11.8011
1 9.29941 17.1407 12.1995
1 7.31235 17.0768 13.8303
2 9.29591 17.116 14.0682
1 9.31168 15.3928 14.8744
2 9.3049 14.9304 16.7034
1 7.40081 15.3283 17.073
1 9.37432 15.168 18.5815
2 7.48072 15.1661 19.1084
1 7.46208 17.0326 19.4701
1 7.47423 15.156 21.0685
2 7.45656 17.0937 21.3973
1 9.43722 17.0866 21.7876
1 7.59521 17.1416 23.3036
2 9.45233 17.0288 23.8066
1 9.40959 15.1463 24.2064
1 9.39274 17.0904 25.7939
2 9.42146 15.1688 26.1977
1 7.52103 15.1776 26.5943
1 9.3875 15.1945 28.1998
2 7.41284 19.0648 28.5337
1 7.41665 21.0005 0.392569
1 7.3642 19.0184 1.94808
2 7.41459 20.9797 2.35106
1 9.30616 20.9754 2.75218
1 7.35681 20.9465 4.35063
2 9.24626 20.9922 4.75874
1 9.30794 19.0422 5.12689
1 9.34136 20.9997 6.71951
2 9.2669 19.0658 7.10834
1 7.363 19.0984 7.24875
1 9.39358 19.154 9.08628
1 7.40289 19.1297 11.7552
2 7.41824 21.0121 12.1109
1 9.34321 20.9737 12.3578
1 7.42706 20.9861 13.9987
2 9.3766 21.0384 14.3059
1 9.33186 18.8345 14.9008
1 9.39837 21.103 16.2365
2 9.34373 19.3275 16.7316
1 7.41353 18.9669 17.0567
1 9.30884 19.1092 18.6291
2 7.42701 18.7924 18.9752
1 7.43733 19.2681 20.816
2 7.43358 21.0132 21.6265
1 9.34716 21.0118 21.5268
1 7.27199 21.024 23.4801
1 9.3894 18.9107 24.2456
1 9.42899 21.0298 26.0961
2 9.36833 19.0621 26.1841
1 7.42579 19.0396 26.5552
1 9.35478 19.0504 28.1723
2 7.40049 22.9548 28.5603
1 7.40115 24.8972 0.40029
1 7.45088 22.9506 1.99497
2 7.453 24.897 2.36018
1 9.427 24.9368 2.73096
1 7.46872 24.9045 4.32234
2 9.36295 24.8955 4.74987
1 9.34124 22.9439 5.13612
1 9.35431 24.8795 6.7305
2 9.37548 22.9312 7.1145
1 7.43412 22.896 7.51463
1 9.31789 22.9087 9.10434
2 7.42273 23.2063 9.40859
1 7.40837 24.9777 9.93661
1 7.40874 22.7226 11.2572
2 7.33126 24.93 11.8768
1 9.17158 24.852 12.3405
1 7.37076 24.887 13.8883
2 9.34422 24.9076 14.2806
1 9.36927 22.982 14.6378
1 9.36507 24.9072 16.2667
2 9.46447 23 16.625
1 7.56582 22.9686 17.0889
1 9.33993 22.9319 18.6367
2 7.37585 23.2418 18.9369
1 7.3448 25.013 19.4382
1 7.41085 22.7462 20.7798
2 7.34123 24.9307 21.386
1 9.20548 24.9265 21.8395
1 7.39592 24.8759 23.3772
2 9.34323 24.9728 23.7939
1 9.41158 23.1044 24.26
1 9.35352 24.9071 25.8112
2 9.46547 22.9737 26.1947
1 7.54829 22.9581 26.5888
1 9.29161 22.9786 28.1571
1 11.3277 1.69643 0.576884
2 11.3044 1.89198 2.47111
1 13.1946 1.5819 2.75192
1 11.3095 1.60828 4.35905
2 13.2523 1.62849 4.74457
1 13.2439 -0.301373 4.85292
1 13.3078 1.78635 6.68682
1 11.2049 -0.346313 7.552
1 13.2453 -0.321045 9.46541
2 11.3036 26.8293 9.50502
1 11.2829 1.60339 9.58862
1 11.2403 26.8188 11.3937
1 13.3681 1.59677 12.0333
1 11.181 1.64315 14.1281
1 13.3063 26.3124 15.0548
1 13.2443 1.81549 16.3773
2 13.2697 -0.00503965 16.7097
1 11.365 26.8221 16.7722
1 13.395 26.8424 18.5709
1 11.2979 1.66503 19.6068
2 11.309 1.82668 21.5049
1 13.1733 1.51867 21.7958
1 11.2819 1.56794 23.409
2 13.175 1.49666 23.7936
1 13.2412 26.8045 24.1763
1 13.2841 1.50889 25.7874
2 12.9758 -0.38183 26.0674
1 11.1666 -0.332322 26.3152
1 13.7876 26.8518 27.7328
2 11.3079 3.61024 28.5462
1 11.2861 5.53891 0.355303
1 11.2951 3.67627 1.96819
2 11.2911 5.54725 2.37026
1 13.2341 5.50758 2.78214
1 11.2934 5.49152 4.35217
2 13.2259 5.50315 4.76173
1 13.2532 3.58226 5.14361
1 13.2952 5.50774 6.7457
2 13.2284 3.6398 7.14988
1 11.2808 3.55558 7.47671
1 13.1451 3.57104 9.09089
2 11.2707 3.54666 9.47542
1 11.2536 5.49897 9.87817
1 11.4118 3.70159 11.419
2 11.0045 5.47424 11.8091
1 11.618 5.40866 13.608
2 13.2426 5.7698 14.3922
1 13.2315 5.3579 16.1774
2 13.2396 3.61789 16.9103
1 11.3122 3.54148 17.095
1 13.2066 3.54794 18.7746
2 11.272 3.52311 19.0645
1 11.2359 5.39537 19.4698
1 11.2856 3.62517 21.0625
2 11.2781 5.49303 21.4301
1 13.1338 5.50869 21.5551
1 11.1107 5.42262 23.3574
1 13.209 3.35508 24.2732
1 13.2415 5.44688 26.1248
2 13.2513 3.49026 26.2012
1 11.3072 3.51005 26.5787
1 13.2445 3.51208 28.169
2 11.2795 7.45789 28.5429
1 11.2857 9.36968 0.397326
1 11.2968 7.44478 1.9691
2 11.2944 9.37237 2.38193
1 13.2315 9.35823 2.77222
1 11.3032 9.37394 4.36714
2 13.2401 9.35889 4.75092
1 13.2533 7.44022 5.17058
1 13.2616 9.41335 6.75324
2 13.3514 7.44467 7.15211
1 11.4446 7.4286 7.541
1 13.1425 7.42485 9.10891
2 11.2503 7.46018 9.50653
1 11.2841 9.43839 9.5968
1 11.4353 7.25594 11.4593
1 13.3965 9.37692 12.3458
1 11.2985 9.39002 14.1751
2 13.2622 9.42756 14.2931
1 13.2503 7.55383 14.7175
1 13.2467 9.41295 16.3143
2 13.1715 7.47419 16.6738
1 11.2731 7.38641 16.7711
1 13.363 7.42416 18.6065
1 11.2879 9.47688 19.4573
1 11.1983 7.43075 21.3352
2 11.3899 9.35801 21.4178
1 13.286 9.37973 21.815
1 11.3606 9.46913 23.3925
2 13.2615 9.17811 23.7014
1 13.2358 7.45578 24.3232
1 13.2609 9.64871 25.5407
2 13.2349 7.38443 26.2136
1 11.3057 7.46147 26.5666
1 13.2394 7.47358 28.1479
2 11.2705 11.2946 28.5856
1 11.289 13.2336 0.386844
1 11.2942 11.3003 1.98134
2 11.3385 13.242 2.37119
1 13.224 13.2269 2.76752
1 11.2922 13.2484 4.38708
2 13.1747 13.2187 4.76485
1 13.1757 11.2893 5.17813
1 13.2365 13.153 6.75714
2 12.8496 11.2845 7.07486
1 11.0613 11.3521 7.73609
1 13.4831 11.2854 8.89295
2 11.6926 11.3208 9.55767
1 11.3164 13.2229 9.88115
1 11.3406 11.4561 11.4148
2 11.2932 13.3275 11.9143
1 13.2114 13.2418 12.2987
1 11.2755 13.2923 13.9006
2 13.2108 13.2525 14.284
1 13.2346 11.3245 14.6844
1 13.2181 13.2672 16.2605
2 13.2559 11.3325 16.6664
1 11.3276 11.3436 17.0771
1 13.2317 11.358 18.6513
2 11.3126 11.4089 19.0471
1 11.2971 13.4614 19.6429
1 11.3142 11.2273 20.9988
2 11.3006 12.9866 21.496
1 13.1854 13.329 21.7999
1 11.3651 13.18 23.4001
2 13.2606 13.5295 23.7029
1 13.2568 13.0329 25.5366
2 13.2547 11.3344 26.3862
1 11.3137 11.309 26.6275
1 13.2394 11.2965 28.2538
2 11.3247 15.1791 28.552
1 11.3024 17.1209 0.384817
1 11.3278 15.1834 1.95744
2 11.2602 17.1188 2.35964
1 13.1122 17.1056 2.81202
1 11.3108 17.1199 4.39683
2 13.2474 17.0288 4.75774
1 13.2378 15.1158 5.15976
1 13.2531 16.9481 6.71497
2 13.2474 15.0657 7.15377
1 11.3026 15.1544 7.52087
1 13.2438 15.179 9.12214
2 11.299 15.1689 9.49627
1 11.26 17.1216 9.87939
1 11.2852 15.2014 11.4683
2 11.2128 17.123 11.8442
1 13.086 17.1279 12.3367
1 11.2294 17.116 13.8376
2 13.2174 17.1158 14.2679
1 13.2435 15.192 14.6496
1 13.2228 17.1153 16.2487
2 13.2384 15.1978 16.612
1 11.2348 15.2477 16.9552
1 13.2128 15.1928 18.5762
2 11.3014 15.2003 18.8292
1 11.2911 16.9227 19.6457
2 11.3201 17.3882 21.4947
1 13.2132 17.0783 21.8151
1 11.3333 17.1282 23.3849
2 13.2698 17.1642 23.8123
1 13.2519 15.2874 24.238
1 13.276 17.1553 25.8117
2 13.2709 15.1994 26.1715
1 11.3389 15.1458 26.576
1 13.2618 15.1526 28.1227
2 11.3022 19.0615 -0.0207873
1 11.3294 20.9986 0.351512
1 11.2861 19.0543 1.96104
2 11.2802 20.9427 2.37121
1 13.2301 20.9999 2.47348
1 11.1212 20.9845 4.3035
1 13.2721 18.9136 4.9158
1 13.2866 21.0965 6.97203
1 11.1377 19.0474 7.5519
1 13.1479 19.0656 9.38532
2 11.2674 19.0649 9.52045
1 11.2791 20.9868 9.9073
1 11.2697 19.0447 11.5073
2 11.2942 20.9254 11.9146
1 13.2446 21.0353 12.322
1 11.3016 20.992 13.8965
2 13.2405 20.9809 14.2882
1 13.2361 19.032 14.6416
1 13.2073 20.8805 16.2421
2 13.2213 18.9988 16.6499
1 11.2208 18.9417 17.0883
1 13.2144 19.0206 18.6188
2 11.2851 19.0646 19.0373
1 11.3141 20.9904 19.3328
1 11.3094 19.1447 20.9705
2 11.3134 20.9753 21.4096
1 13.2861 20.9792 21.8004
1 11.4527 20.9919 23.3428
2 13.3266 21.0002 23.7835
1 13.2586 19.0684 24.1938
1 13.2538 21.0362 25.7483
2 13.2457 19.0922 26.1718
1 11.3021 19.0637 26.5653
1 13.2307 19.0618 28.1415
2 11.0538 22.8707 0.0876493
1 11.4035 24.7158 0.551174
1 11.2814 22.817 1.99256
2 11.3075 24.6124 2.46461
1 13.1682 24.9609 2.73441
1 11.2781 24.904 4.35596
2 13.1713 24.9776 4.7529
1 13.1946 23.0897 5.18211
1 13.2502 24.8169 6.71051
2 13.2451 22.9571 7.15516
1 11.2994 22.9182 7.52248
1 13.239 22.9333 9.12971
2 11.2869 22.9277 9.49947
1 11.28 24.8667 9.57549
1 11.2964 22.7957 11.4479
1 13.4028 24.8949 12.1917
1 11.307 24.8669 14.1207
2 13.2367 24.7545 14.0299
1 13.244 23.0659 14.8762
2 13.2426 22.6576 16.7552
1 11.3693 23.0247 17.062
1 13.2488 22.9515 18.6531
2 11.2854 22.9022 19.029
1 11.279 24.7771 19.2605
1 11.3228 22.7961 20.9609
1 13.1903 24.9945 21.9006
1 11.2885 24.9461 23.7026
2 13.2375 24.8921 23.7826
1 13.2191 22.957 24.0889
1 13.2678 24.9044 25.7818
2 13.2445 22.9733 25.9649
1 11.5164 22.977 26.7978
2 15.3235 -0.26066 0.220403
1 15.2168 1.62262 0.45145
1 15.2189 26.8739 2.09154
2 15.1819 1.62606 2.41057
1 17.1794 1.58002 2.73815
1 15.1901 1.64701 4.34895
2 17.1253 1.66929 4.68931
1 17.1206 -0.20354 4.9132
1 17.0864 1.79642 6.6077
1 15.1983 -0.344316 7.66974
1 17.1472 26.8238 9.42937
2 15.1947 -0.325979 9.55749
1 15.2432 1.62045 9.89064
1 15.2098 -0.335747 11.5337
2 15.2388 1.60289 11.8907
1 17.1293 1.6399 11.9812
1 15.1587 1.63653 13.7913
1 17.1414 26.6586 14.722
1 17.1204 1.56131 16.5612
2 17.1313 -0.38329 16.6633
1 15.1879 26.8381 17.0212
1 17.1666 -0.336031 18.6381
2 15.2743 26.8332 19.0229
1 15.1683 1.59532 19.3839
1 15.2369 -0.232942 20.9557
2 15.2021 1.59429 21.414
1 17.1956 1.68222 21.5016
1 15.0383 1.59631 23.3248
1 17.0857 26.6904 24.1902
1 17.0533 1.53698 26.072
2 17.3742 -0.357268 26.0324
1 17.0083 26.8184 27.9252
2 15.1943 3.53979 28.5553
1 15.1784 5.4768 0.392878
1 15.1698 3.54559 1.98753
2 15.1351 5.48138 2.37718
1 17.0348 5.4991 2.77486
1 15.1516 5.49243 4.38014
2 17.0855 5.51587 4.67835
1 17.1972 3.61738 5.00208
1 17.1331 5.52845 6.62034
2 17.0077 3.65934 6.88806
1 15.321 3.55688 7.72399
2 14.9103 3.45154 9.5891
1 15.44 5.254 9.92921
1 15.0802 3.55479 11.51
2 15.463 5.44159 11.8208
1 17.2271 5.47346 12.3299
1 14.8702 5.38737 13.6289
2 17.185 5.53498 14.2681
1 17.0507 3.67259 14.6781
1 17.0998 5.36945 16.2049
2 17.1126 3.47476 16.6606
1 15.1532 3.53907 17.0595
1 16.9949 3.54456 18.612
2 15.1218 3.53933 19.0552
1 15.1921 5.4903 19.1297
1 15.1823 3.4309 20.9813
1 17.8006 5.33044 22.2225
1 15.1719 5.47597 23.5407
2 16.9475 5.5351 23.8741
1 17.2218 3.70767 24.2829
1 17.1279 5.50617 25.7933
2 17.1359 3.51307 26.2047
1 15.1999 3.53805 26.5721
1 17.1533 3.52967 28.1884
2 15.1861 7.41844 28.5453
1 15.1912 9.35738 0.370967
1 15.1663 7.4226 1.95742
2 15.1713 9.34553 2.35624
1 17.1083 9.3412 2.72757
1 15.1552 9.3456 4.33856
2 17.0444 9.28733 4.69349
1 17.1811 7.40414 5.05338
1 17.0475 9.36942 6.70318
2 17.0818 7.44365 6.94313
1 15.2603 7.43031 7.34815
1 15.2854 9.47249 9.99741
1 15.1336 7.33225 11.7728
2 15.2666 9.30972 11.9272
1 17.1589 9.36333 12.2627
1 15.2257 9.38868 13.9055
2 17.1415 9.3873 14.2569
1 17.0775 7.42664 14.3527
1 17.1437 9.52962 16.1976
1 15.0581 7.41934 17.0461
1 17.1633 7.43688 18.9468
2 15.2559 7.43849 19.027
1 15.1974 9.40339 19.4082
1 15.2255 7.58285 20.9866
2 15.2101 9.46495 21.4082
1 17.1272 9.42895 21.856
1 15.1728 9.45089 23.4071
2 17.1249 9.34783 23.8023
1 17.157 7.39127 24.1454
1 17.1152 9.26026 25.736
2 17.1371 7.39047 26.1828
1 15.1675 7.43417 26.5652
1 17.1322 7.41967 28.1518
2 15.1835 11.3003 0.0444286
1 15.1754 13.2126 0.372094
1 15.1866 11.2682 1.9948
2 15.1809 13.1537 2.37723
1 17.1371 13.2137 2.46041
1 15.041 13.2072 4.31003
1 17.1113 11.1532 5.16671
1 17.0333 13.1801 7.03038
2 17.3126 11.2865 7.03107
1 16.9443 11.2866 8.92209
2 15.2225 11.3633 9.69974
1 15.1695 13.2387 9.94179
1 15.1593 11.2895 11.5777
2 15.1145 13.19 11.9435
1 16.9921 13.25 12.2845
1 15.1341 13.2584 13.9161
2 17.0531 13.2596 14.2683
1 17.1459 11.3491 14.6542
1 17.1152 13.2756 16.2371
2 17.1336 11.3987 16.663
1 15.1872 11.3289 17.0596
1 17.1338 11.3362 18.6274
2 15.1833 11.3239 19.025
1 15.1625 13.26 19.4064
1 15.1597 11.3462 21.0028
2 15.141 13.2624 21.3613
1 17.0899 13.2623 21.7244
1 15.1356 13.1958 23.3361
2 17.0842 13.2343 23.5993
1 17.0965 11.5167 24.4368
2 17.0525 11.0188 26.2852
1 15.1973 11.3482 26.6292
1 17.1004 11.2825 28.194
2 15.1897 15.1452 -0.0152724
1 15.1946 17.0926 0.0726332
1 15.1832 15.0277 1.92518
1 17.3109 17.2496 2.79516
1 15.1915 17.1025 4.65772
2 17.1463 17.0888 4.71317
1 17.1388 15.2674 5.21659
1 17.1667 17.1657 6.6847
2 17.1055 15.1678 7.15089
1 15.1813 15.156 7.52328
1 17.0971 15.1968 9.13702
2 15.1789 15.2006 9.50347
1 15.2396 17.1736 9.61632
1 15.1537 15.0689 11.4443
1 17.293 17.1082 12.346
1 15.1902 17.1282 14.1782
2 17.1475 17.1347 14.2863
1 17.1296 15.1947 14.6651
1 17.1428 17.1447 16.2674
2 17.075 15.2031 16.6538
1 15.1739 15.1973 17.0484
1 17.0854 15.1769 18.6613
2 15.1558 15.1915 19.0259
1 15.1997 17.1265 19.4258
1 15.1577 15.1903 21.009
2 15.1752 17.1105 21.4109
1 17.1281 17.1171 21.836
1 15.2079 17.1139 23.3898
2 17.1361 17.1752 23.8055
1 17.1117 14.9663 24.4211
1 17.1304 17.2361 25.7563
2 17.1299 15.461 26.2611
1 15.2255 15.086 26.5515
1 17.1399 15.1797 28.1449
2 15.1283 19.0302 28.5417
1 15.0766 20.9737 0.364192
1 15.366 19.2408 1.91045
2 15.1321 21.1172 2.34934
1 17.1752 20.8162 2.68467
1 15.4155 21.1638 4.28773
2 17.2192 20.8317 4.63131
1 17.1613 19.0009 4.90323
1 17.1691 21.1186 6.48323
2 17.268 19.1008 6.79759
1 15.7928 19.1686 7.92216
2 14.9617 19.0799 9.59284
1 15.2166 21.0089 9.90896
1 15.2215 19.2271 11.4596
2 15.2036 21.1003 11.9209
1 17.1401 21.0153 12.3231
1 15.1705 21.0458 13.8899
2 17.1428 21.0088 14.28
1 17.1477 19.0792 14.6635
1 17.1004 21.0023 16.2556
2 17.1281 19.0809 16.6408
1 15.1915 19.049 17.0704
1 17.188 19.106 18.6185
2 15.1936 19.0578 19.0251
1 15.1861 20.969 19.4061
1 15.1816 19.0316 21.0066
2 15.2067 20.9181 21.4271
1 17.1385 20.9768 21.8946
1 15.2058 20.9995 23.4115
2 17.1258 21.0144 23.8582
1 17.1417 19.1041 24.1818
1 17.094 21.0215 25.827
2 17.1298 19.1221 26.2005
1 15.2015 19.0989 26.5859
1 17.1053 19.0732 28.3531
1 15.1227 25.041 0.487066
1 15.1912 23.0047 2.27062
2 15.1873 24.9274 2.41218
1 17.1771 24.972 2.47126
1 15.0439 24.8442 4.32062
1 17.1187 24.5238 6.71536
2 17.1173 22.7932 7.36399
1 15.1943 22.9257 7.55706
1 17.104 22.937 9.22375
2 15.1613 22.9497 9.53218