1736
Atoms. Timestep: 534
2 -0.0908823 0.152713 -0.124453
1 -0.0997843 1.90141 0.434227
1 -0.0955405 -0.32463 1.71602
2 -0.0830919 1.77051 2.36314
1 1.82502 1.6703 2.78201
1 -0.0989133 1.73892 4.33088
2 1.79297 1.77419 4.78177
1 1.85094 -0.112842 5.21129
1 1.84052 1.78126 6.76339
2 1.79526 -0.108273 7.16735
1 -0.149064 -0.113093 7.48858
1 1.68047 -0.109322 9.08841
2 -0.184414 -0.111245 9.50688
1 -0.139358 1.7983 9.92056
1 -0.122812 -0.112243 11.4945
2 -0.110834 1.79572 11.8947
1 1.8108 1.78715 12.2768
1 -0.104537 1.79447 13.865
2 1.80575 1.79376 14.2606
1 1.80787 -0.113623 14.666
1 1.80076 1.79384 16.245
2 1.7989 -0.112265 16.647
1 -0.118025 -0.122045 17.0475
1 1.79709 -0.112055 18.6208
2 -0.113912 -0.114696 19.0257
1 -0.117047 1.7933 19.4241
1 -0.110592 -0.116128 21.0065
2 -0.116383 1.79644 21.4028
1 1.78915 1.80796 21.7881
1 -0.111128 1.80315 23.3802
2 1.80968 1.79998 23.765
1 1.78233 -0.104814 24.1415
1 1.78501 1.79038 25.7533
2 1.80206 -0.112086 26.0869
1 -0.117933 -0.0991894 26.5115
1 1.77215 -0.161905 28.0428
2 -0.0937805 3.76426 0.0171155
1 -0.107458 5.63067 0.423287
1 -0.0713439 3.72246 2.03821
2 -0.110288 5.63137 2.40298
1 1.79744 5.64491 2.79037
1 -0.112194 5.61831 4.37414
2 1.7963 5.60833 4.7661
1 1.79116 3.68793 5.15138
1 1.79867 5.6028 6.73908
2 1.81123 3.69428 7.14
1 -0.101561 3.69259 7.53821
1 1.81055 3.66853 9.12502
2 -0.105904 3.7018 9.51659
1 -0.106965 5.60904 9.91383
1 -0.109114 3.70344 11.4976
2 -0.11916 5.61227 11.8933
1 1.78551 5.60426 12.2822
1 -0.115999 5.61257 13.8726
2 1.78559 5.61068 14.269
1 1.79735 3.70012 14.669
1 1.79974 5.60758 16.2486
2 1.80559 3.70032 16.6508
1 -0.10819 3.70426 17.0489
1 1.80315 3.71012 18.6293
2 -0.109752 3.70649 19.0263
1 -0.11602 5.61968 19.4282
1 -0.10576 3.70751 21.0023
2 -0.10496 5.61771 21.4068
1 1.81327 5.62235 21.8059
1 -0.100962 5.61334 23.3849
2 1.82033 5.60071 23.7787
1 1.81088 3.69683 24.182
1 1.84419 5.59886 25.7636
2 1.82672 3.68801 26.1593
1 -0.0958914 3.72365 26.5617
1 1.83003 3.68033 28.1338
2 -0.117423 7.52942 0.0110155
1 -0.0859368 9.42914 0.410896
1 -0.120635 7.53198 1.99738
2 -0.112324 9.4342 2.3882
1 1.79749 9.43276 2.78788
1 -0.116819 9.42868 4.36065
2 1.79454 9.42828 4.7633
1 1.79673 7.51998 5.16498
1 1.79421 9.42725 6.74057
2 1.79683 7.51649 7.13983
1 -0.111441 7.51975 7.53942
1 1.79753 7.51686 9.11744
2 -0.111048 7.51998 9.51725
1 -0.111815 9.42871 9.9172
1 -0.113999 7.52039 11.4945
2 -0.112702 9.42923 11.8957
1 1.79675 9.42903 12.2949
1 -0.111079 9.42655 13.8726
2 1.79685 9.43009 14.2727
1 1.79408 7.52079 14.6709
1 1.79976 9.43019 16.2509
2 1.795 7.51887 16.6488
1 -0.104189 7.51433 17.0477
1 1.79959 7.52146 18.6314
2 -0.109666 7.5298 19.0281
1 -0.11113 9.43714 19.4243
1 -0.142883 7.53169 21.0104
2 -0.132967 9.44158 21.4024
1 1.79682 9.42513 21.794
1 -0.120559 9.43202 23.3737
2 1.79859 9.42466 23.7666
1 1.81367 7.51061 24.1732
1 1.79851 9.42527 25.7428
2 1.79549 7.51621 26.152
1 -0.117964 7.52227 26.5501
1 1.79249 7.52225 28.1285
2 -0.0448949 11.3373 -0.000670623
1 -0.0855773 13.2449 0.411277
1 -0.101411 11.3372 1.98605
2 -0.111827 13.2398 2.38847
1 1.7982 13.2443 2.78758
1 -0.116656 13.2456 4.36051
2 1.79452 13.2461 4.76288
1 1.79297 11.3372 5.16115
1 1.79371 13.2471 6.74008
2 1.79014 11.3373 7.13819
1 -0.112224 11.3376 7.53851
1 1.79313 11.3373 9.1189
2 -0.111972 11.338 9.518
1 -0.113205 13.2473 9.9188
1 -0.113289 11.338 11.4959
2 -0.115647 13.246 11.8969
1 1.79525 13.2448 12.2948
1 -0.113573 13.2531 13.8734
2 1.79501 13.2465 14.2723
1 1.79819 11.3391 14.6725
1 1.79052 13.2516 16.2522
2 1.80668 11.3402 16.6504
1 -0.0969241 11.3404 17.0349
1 1.79984 11.3374 18.6303
2 -0.121835 11.3396 19.0108
1 -0.117844 13.2446 19.4198
1 -0.117219 11.3393 20.9922
2 -0.134156 13.2385 21.3994
1 1.79072 13.2435 21.796
1 -0.124892 13.2411 23.3731
2 1.78914 13.2478 23.771
1 1.79905 11.3365 24.1639
1 1.79871 13.2497 25.747
2 1.81976 11.3369 26.135
1 -0.0810548 11.3371 26.507
1 1.82073 11.3385 28.1143
2 -0.11699 15.1419 0.0104063
1 -0.118465 17.0365 0.420991
1 -0.116438 15.1415 1.9989
2 -0.112875 17.0386 2.40241
1 1.79755 17.0527 2.78949
1 -0.115313 17.0597 4.37467
2 1.79636 17.0649 4.76525
1 1.79602 15.1546 5.16247
1 1.79784 17.0654 6.74072
2 1.79602 15.1553 7.14014
1 -0.113105 15.1567 7.54002
1 1.79601 15.1549 9.11814
2 -0.112131 15.1554 9.51957
1 -0.112258 17.0635 9.9194
1 -0.114078 15.1556 11.4993
2 -0.115983 17.0645 11.9016
1 1.79209 17.0625 12.2999
1 -0.119094 17.0728 13.888
2 1.79727 17.0637 14.2732
1 1.79281 15.1553 14.6704
1 1.8202 17.0625 16.2498
2 1.78973 15.1581 16.6515
1 -0.130077 15.1937 17.0506
1 1.78504 15.1625 18.6297
2 -0.131253 15.156 19.0252
1 -0.175391 17.0762 19.4052
1 -0.133402 15.153 21.0025
2 -0.118196 17.064 21.3965
1 1.79818 17.0997 21.7875
1 -0.103672 17.0734 23.3781
2 1.80396 17.0746 23.7736
1 1.79318 15.1583 24.1707
1 1.78958 17.0676 25.7463
2 1.79183 15.1577 26.1516
1 -0.121348 15.1442 26.5533
1 1.79452 15.1547 28.1285
2 -0.112893 18.908 0.0181559
1 -0.1081 20.7776 0.444952
1 -0.116387 18.9382 2.03193
2 -0.119888 20.8723 2.37657
1 1.76749 20.9073 2.7781
1 -0.122023 20.9242 4.34263
2 1.78932 20.8877 4.76057
1 1.78645 18.9777 5.15866
1 1.79314 20.8854 6.73777
2 1.79519 18.9748 7.13829
1 -0.115371 18.973 7.53609
1 1.79618 18.9763 9.11636
2 -0.114949 18.9703 9.51604
1 -0.104812 20.8793 9.91734
1 -0.112537 18.9715 11.4969
2 -0.109107 20.8771 11.9019
1 1.79997 20.8881 12.2991
1 -0.119292 20.8767 13.8921
2 1.8007 20.8794 14.2704
1 1.80564 18.9717 14.6731
1 1.82916 20.8788 16.2434
2 1.85851 18.9724 16.6641
1 -0.0111518 18.976 17.091
1 1.83459 18.976 18.6874
2 -0.107468 18.9683 19.0152
1 -0.150899 20.8545 19.4133
1 -0.181754 18.9662 20.973
2 -0.183341 20.8744 21.4077
1 1.68113 20.867 21.8301
1 -0.146005 20.874 23.4219
2 1.79023 20.8819 23.7651
1 1.84884 18.9955 24.1659
1 1.82712 20.8869 25.7442
2 1.80301 18.9742 26.1483
1 -0.10908 18.97 26.551
1 1.79374 18.9377 28.1232
2 -0.109636 22.5336 -0.0972341
1 -0.0926385 23.0209 1.74278
2 -0.0918413 24.7139 2.59615
1 1.82462 24.7558 2.86664
1 -0.104548 24.7032 4.47583
2 1.8226 24.7089 4.83537
1 1.81089 22.7978 5.16354
1 1.86756 24.7123 6.78939
2 1.81042 22.7933 7.1448
1 -0.100677 22.7963 7.54175
1 1.81257 22.8187 9.12848
2 -0.0989012 22.7884 9.522
1 -0.138745 24.6942 9.92211
1 -0.103898 22.7859 11.5031
2 -0.106941 24.6954 11.8971
1 1.81429 24.7048 12.2788
1 -0.106194 24.6845 13.8715
2 1.80792 24.6961 14.261
1 1.80789 22.7891 14.6571
1 1.80257 24.695 16.2461
2 1.82052 22.7847 16.6331
1 -0.0871935 22.7531 16.9981
1 1.81751 22.7681 18.622
2 -0.0538823 22.7763 19.0106
1 -0.0813024 24.6944 19.4235
1 -0.122908 22.7812 20.9881
2 -0.112038 24.6883 21.4033
1 1.79413 24.6524 21.8182
1 -0.119033 24.6841 23.3825
2 1.7904 24.6906 23.7821
1 1.84441 22.7698 24.1537
1 1.80447 24.7042 25.7403
2 1.78897 22.8054 26.1241
1 -0.109073 22.7628 26.5267
1 1.74083 22.9075 28.1272
2 3.6739 -0.110644 -0.176214
1 3.67499 1.58237 0.656502
2 3.68465 2.052 2.49289
1 5.55998 1.75998 2.76597
1 3.69554 1.83031 4.37541
2 5.61312 1.81533 4.72169
1 5.58949 -0.111711 5.02041
1 5.60168 1.78504 6.67492
2 5.58921 -0.112986 6.89108
1 3.9178 -0.109162 7.78829
2 3.43532 -0.113606 9.62528
1 3.76544 1.74367 9.9252
1 3.69146 -0.111212 11.5142
2 3.74593 1.7863 11.9122
1 5.66159 1.74073 12.3314
1 3.71611 1.79487 13.8755
2 5.61638 1.78162 14.3046
1 5.66038 -0.118847 14.6837
1 5.63816 1.79237 16.2743
2 5.62917 -0.121966 16.6626
1 3.7155 -0.115616 17.0514
1 5.63058 -0.124792 18.6414
2 3.70801 -0.118215 19.0236
1 3.70156 1.80187 19.3997
1 3.66309 -0.116203 20.9926
2 3.68962 1.79256 21.354
1 5.63298 1.72639 21.6795
1 3.72913 1.79245 23.3176
2 5.63121 1.77938 23.56
1 5.66757 0.0553382 24.3726
2 5.64132 -0.371635 26.2147
1 3.76157 -0.0487988 26.4657
1 5.59658 -0.161071 28.1021
2 3.70468 3.6711 0.0417552
1 3.7223 5.63278 0.345055
1 3.6855 3.80912 1.9631
2 3.70699 5.67389 2.37184
1 5.61502 5.63733 2.786
1 3.70408 5.62072 4.36345
2 5.61417 5.61942 4.76242
1 5.60904 3.71511 5.13603
1 5.62566 5.60328 6.74323
2 5.61464 3.68682 7.12626
1 3.71922 3.70725 7.54556
1 5.63991 3.65262 9.13005
2 3.72755 3.66941 9.51709
1 3.70394 5.59449 9.90583
1 3.7317 3.68045 11.4885
2 3.68118 5.60046 11.8745
1 5.57914 5.62076 12.2427
1 3.67992 5.60008 13.8563
2 5.54611 5.60672 14.2587
1 5.60468 3.69368 14.673
1 5.60327 5.60486 16.239
2 5.63497 3.70354 16.6608
1 3.72232 3.69883 17.0584
1 5.65669 3.75559 18.6445
2 3.72679 3.7153 19.0255
1 3.71803 5.61836 19.4255
1 3.74198 3.70893 21.004
2 3.74159 5.61555 21.4048
1 5.68331 5.6215 21.832
1 3.74537 5.5566 23.3788
2 5.62448 5.63089 23.8042
1 5.63053 3.4812 24.4198
1 5.60675 5.71629 25.7327
2 5.60657 3.96001 26.2672
1 3.75868 3.58123 26.5859
1 5.59383 3.65704 28.1636
2 3.70549 7.54271 -0.00754768
1 3.70852 9.442 0.400288
1 3.70418 7.53929 1.96548
2 3.70642 9.43698 2.38379
1 5.61781 9.42825 2.78712
1 3.70523 9.42785 4.36304
2 5.61687 9.42827 4.76213
1 5.61527 7.52051 5.16417
1 5.60626 9.42603 6.73853
2 5.61533 7.51636 7.14057
1 3.70588 7.51591 7.53875
1 5.61502 7.51417 9.11846
2 3.7057 7.51353 9.51534
1 3.70328 9.42616 9.91721
1 3.69572 7.5168 11.4879
2 3.70759 9.4262 11.8955
1 5.6202 9.42438 12.2968
1 3.70503 9.4372 13.8714
2 5.61928 9.43019 14.2694
1 5.56445 7.52176 14.6512
1 5.60658 9.42796 16.2445
2 5.5878 7.51739 16.6006
1 3.6941 7.51782 17.0383
1 5.63561 7.5181 18.5614
2 3.72086 7.52 19.0137
1 3.70958 9.42151 19.4243
1 3.72852 7.51545 21.0002
2 3.73137 9.41788 21.3974
1 5.67623 9.37757 21.7979
1 3.71512 9.43853 23.3591
2 5.62034 9.44105 23.771
1 5.62151 7.55086 24.1378
1 5.61356 9.45375 25.7406
2 5.61636 7.586 26.1473
1 3.70334 7.55676 26.5499
1 5.61902 7.53718 28.1266
2 3.71606 11.3436 0.002698
1 3.70882 13.2473 0.407703
1 3.70676 11.3404 1.98649
2 3.70644 13.2462 2.38715
1 5.61706 13.2481 2.78665
1 3.70534 13.2471 4.36448
2 5.61688 13.2467 4.76124
1 5.60391 11.3373 5.15385
1 5.60721 13.249 6.73725
2 5.58804 11.3376 7.12351
1 3.69056 11.3373 7.52962
1 5.58779 11.3388 9.10163
2 3.69397 11.3368 9.51543
1 3.70139 13.2472 9.91813
1 3.70576 11.336 11.4949
2 3.70428 13.2458 11.8955
1 5.61257 13.2459 12.2963
1 3.70522 13.2444 13.8744
2 5.61601 13.2456 14.2736
1 5.62431 11.3367 14.6709
1 5.62186 13.2434 16.2559
2 5.61056 11.3323 16.653
1 3.71226 11.3452 17.0588
1 5.63765 11.2834 18.6445
2 3.71625 11.3302 19.0321
1 3.7137 13.2429 19.4277
1 3.73776 11.3288 21.0094
2 3.70637 13.2453 21.4027
1 5.61911 13.2754 21.7983
1 3.70348 13.2438 23.3765
2 5.61864 13.2549 23.7702
1 5.63567 11.3459 24.1463
1 5.61677 13.2449 25.7469
2 5.62144 11.3464 26.1429
1 3.71829 11.3417 26.5391
1 5.61769 11.3403 28.13
2 3.70494 15.1503 0.00635055
1 3.71066 17.0523 0.398914
1 3.70526 15.1523 1.9865
2 3.70634 17.055 2.38348
1 5.61506 17.0628 2.78577
1 3.70565 17.0641 4.36492
2 5.61515 17.0638 4.76335
1 5.6177 15.1555 5.1611
1 5.61457 17.0631 6.74108
2 5.61601 15.1553 7.14055
1 3.70486 15.1552 7.53977
1 5.61365 15.157 9.11614
2 3.70503 15.1558 9.51759
1 3.70241 17.0656 9.9178
1 3.704 15.1559 11.4959
2 3.70155 17.0668 11.8944
1 5.61161 17.0643 12.291
1 3.70828 17.07 13.8727
2 5.61604 17.0651 14.2705
1 5.60918 15.1534 14.6751
1 5.62489 17.0695 16.2467
2 5.61391 15.1572 16.6518
1 3.70386 15.1532 17.0547
1 5.61323 15.1729 18.6316
2 3.69983 15.158 19.0312
1 3.70773 17.0679 19.4382
1 3.69776 15.1597 21.0069
2 3.71435 17.085 21.4047
1 5.61516 17.0665 21.8096
1 3.70749 17.0633 23.3786
2 5.61013 17.0699 23.7944
1 5.61333 15.1575 24.1792
1 5.6148 17.049 25.7762
2 5.61443 15.1461 26.1567
1 3.70265 15.1525 26.5531
1 5.61623 15.1525 28.1319
2 3.70214 18.9525 -0.0025926
1 3.64474 20.8561 0.360425
1 3.69578 18.9545 1.97542
2 3.69339 20.8214 2.37594
1 5.62128 20.8654 2.77333
1 3.69997 20.8615 4.35004
2 5.61447 20.8722 4.7557
1 5.61362 18.9723 5.16213
1 5.62264 20.888 6.74002
2 5.61442 18.9753 7.1386
1 3.70483 18.9773 7.53843
1 5.61249 18.965 9.1158
2 3.70453 18.979 9.51749
1 3.71736 20.8971 9.9186
1 3.70136 18.9783 11.4918
2 3.71255 20.8904 11.8963
1 5.62298 20.8619 12.3024
1 3.71514 20.8836 13.8733
2 5.63941 20.8912 14.2704
1 5.65018 18.9816 14.6635
1 5.62007 20.8898 16.2449
2 5.63345 18.9821 16.6395
1 3.73059 18.9667 17.0517
1 5.63238 18.9646 18.6139
2 3.74506 18.9646 19.0219
1 3.70459 20.8787 19.4062
1 3.78133 19.0188 21.0011
2 3.43535 20.878 21.2935
1 3.92171 20.8895 23.1321
2 5.62274 20.8638 23.973
1 5.60988 18.9749 24.242
1 5.65386 20.8868 25.861
2 5.62287 18.9491 26.2045
1 3.7126 18.9628 26.553
1 5.62359 18.9861 28.1618
2 3.60313 22.8027 0.0255675
1 3.66222 24.9201 0.675808
1 3.6812 22.6819 1.95543
2 3.68841 24.4314 2.50531
1 5.57407 24.7125 2.7593
1 3.72076 24.6697 4.38841
2 5.62759 24.6743 4.72038
1 5.60813 22.7733 5.13296
1 5.60268 24.7053 6.67431
2 5.61359 22.8039 7.12122
1 3.71819 22.777 7.54492
1 5.63172 22.8475 9.11913
2 3.72681 22.8217 9.51997
1 3.76758 24.7466 9.93066
1 3.74979 22.8084 11.4961
2 3.75244 24.7063 11.9175
1 5.66562 24.7727 12.3431
1 3.7211 24.689 13.8779
2 5.6367 24.6965 14.303
1 5.62691 22.7918 14.6658
1 5.61157 24.6896 16.2614
2 5.63031 22.7893 16.6538
1 3.72049 22.7947 17.034
1 5.606 22.8001 18.6398
2 3.71791 22.7909 19.0071
1 3.6978 24.6869 19.4399
1 3.76081 22.7416 20.9977
2 3.65859 24.6776 21.4196
1 5.50738 24.7473 21.8736
1 3.70655 24.7293 23.4536
2 5.63995 24.6924 23.7945
1 5.69141 22.7588 24.2097
1 5.72822 24.5814 25.7228
2 5.61597 22.7552 26.2228
1 3.66928 22.8171 26.5527
1 5.46472 22.8706 28.1512
2 7.51653 -0.126012 0.0112697
1 7.51145 1.77964 0.411171
1 7.51049 -0.123884 1.97402
2 7.49578 1.77524 2.37977
1 9.42013 1.78196 2.77498
1 7.51265 1.79932 4.34476
2 9.41688 1.79567 4.75531
1 9.43466 -0.121552 5.15095
1 9.3929 1.76923 6.74105
2 9.47642 -0.120338 7.09152
1 7.33591 -0.112015 7.641
1 9.57171 -0.101212 9.01243
2 7.81169 -0.100537 9.40673
1 7.43374 1.49549 10.2148
2 7.51349 2.0744 12.0164
1 9.37969 1.72657 12.2888
1 7.53363 1.87143 13.9091
2 9.44775 1.87614 14.3057
1 9.43076 0.0155309 14.7172
1 9.43565 1.85749 16.3305
2 9.42664 -0.0985779 16.6324
1 7.54479 -0.177413 17.026
1 9.44816 -0.139786 18.5898
2 7.55223 -0.136439 18.9923
1 7.59859 1.76661 19.3518
1 7.63161 -0.176761 20.9761
2 7.59493 1.71177 21.3342
1 9.50865 1.83081 21.8069
1 7.53077 1.77777 23.2971
2 9.42178 1.80541 23.7915
1 9.44857 -0.103032 24.2051
1 9.42132 1.8079 25.7642
2 9.41059 -0.0867363 26.1803
1 7.48813 -0.0344231 26.555
1 9.41724 -0.102752 28.1369
2 7.5142 3.67767 0.0270068
1 7.50078 5.59704 0.394209
1 7.49802 3.69052 1.99558
2 7.51836 5.60541 2.38061
1 9.42774 5.60982 2.78014
1 7.52414 5.60848 4.36405
2 9.42737 5.61172 4.76801
1 9.42248 3.70015 5.17163
1 9.41934 5.60711 6.75328
2 9.41295 3.68657 7.14363
1 7.51277 3.66667 7.56382
1 9.39869 3.60935 9.13273
2 7.51707 3.73507 9.52927
1 7.56592 5.65222 9.89188
1 7.58489 3.82426 11.4615
2 7.51942 5.67278 11.8967
1 9.66103 5.63162 12.5445
1 7.40722 5.62769 13.8283
2 9.15958 5.62556 14.3671
1 9.43738 3.76376 14.6547
1 9.41724 5.63201 16.2513
2 9.42322 3.75816 16.6307
1 7.54972 3.76765 17.0974
1 9.55495 3.81743 18.6448
2 7.58131 3.7262 19.0391
1 7.56237 5.83219 19.6959
1 7.54692 3.58395 20.9553
2 7.58185 5.32474 21.5248
1 9.49237 5.56329 21.8637
1 7.51841 5.56118 23.407
2 9.40688 5.58538 23.8601
1 9.39903 3.6941 24.19
1 9.36605 5.60535 25.7993
2 9.39833 3.69792 26.167
1 7.46341 3.6394 26.573
1 9.41708 3.70259 28.1306
2 7.52608 7.51744 0.00627045
1 7.5237 9.42915 0.4098
1 7.5296 7.51531 1.97997
2 7.52651 9.42674 2.38604
1 9.43643 9.43119 2.78434
1 7.53145 9.43719 4.36712
2 9.44258 9.43054 4.76532
1 9.42319 7.52385 5.17068
1 9.4801 9.45012 6.75365
2 9.43507 7.52839 7.1379
1 7.52708 7.53701 7.53413
1 9.44285 7.57211 9.11147
2 7.52946 7.54598 9.50711
1 7.4889 9.43413 9.92076
1 7.57779 7.52464 11.4991
2 7.53175 9.42892 11.8992
1 9.44542 9.4394 12.2794
1 7.53617 9.38877 13.8762
2 9.44795 9.40627 14.2629
1 9.5083 7.47978 14.6369
1 9.42316 9.42358 16.2373
2 9.42837 7.52532 16.5819
1 7.51822 7.5031 16.923
1 9.4395 7.57534 18.5444
2 7.53737 7.50985 18.8086
1 7.55401 9.19803 19.6751
2 7.55573 9.68927 21.5045
1 9.43668 9.35394 21.8083
1 7.54208 9.44129 23.3865
2 9.44583 9.41684 23.7997
1 9.4524 7.50248 24.1491
1 9.43951 9.41701 25.7532
2 9.4365 7.51605 26.151
1 7.52843 7.55117 26.5521
1 9.43494 7.51787 28.1377
2 7.52198 11.3383 0.00927336
1 7.52256 13.248 0.409034
1 7.52426 11.3379 1.98742
2 7.52587 13.248 2.38639
1 9.43624 13.2448 2.78353
1 7.53126 13.2366 4.3671
2 9.44207 13.2434 4.76453
1 9.48339 11.3372 5.18775
1 9.48388 13.2262 6.754
2 9.43029 11.3376 7.15651
1 7.48964 11.338 7.49068
1 9.31707 11.3385 9.08619
2 7.45306 11.3394 9.50908
1 7.49571 13.2462 9.92096
1 7.5131 11.3366 11.4985
2 7.52347 13.2442 11.8968
1 9.44097 13.2371 12.2813
1 7.52592 13.246 13.8686
2 9.43581 13.231 14.2663
1 9.40592 11.3241 14.6432
1 9.41672 13.2215 16.2538
2 9.4037 11.3203 16.5966
1 7.50663 11.2901 17.06
1 9.42855 11.3095 18.5619
2 7.53759 11.3442 19.0247
1 7.52102 13.2775 19.3799
1 7.54036 11.4395 20.9552
2 7.54603 13.3022 21.3901
1 9.48127 13.2022 21.8137
1 7.53212 13.2609 23.3664
2 9.42671 13.2334 23.7966
1 9.42831 11.3254 24.1647
1 9.42304 13.2456 25.7569
2 9.41477 11.3312 26.1475
1 7.52211 11.3385 26.5519
1 9.42656 11.336 28.1307
2 7.52475 15.1586 0.00686418
1 7.52503 17.0713 0.404447
1 7.52491 15.1591 1.98466
2 7.5209 17.072 2.38003
1 9.43112 17.0701 2.77792
1 7.52566 17.0731 4.36149
2 9.42953 17.0633 4.76332
1 9.42107 15.1489 5.17133
1 9.44055 17.0663 6.74226
2 9.43819 15.1468 7.143
1 7.53039 15.1458 7.54028
1 9.44198 15.1218 9.1247
2 7.5252 15.1475 9.51761
1 7.52767 17.0497 9.91108
1 7.52635 15.1505 11.4982
2 7.52443 17.0525 11.8928
1 9.43723 17.0466 12.2983
1 7.52189 17.0349 13.8684
2 9.43489 16.9939 14.2839
1 9.43693 15.1273 14.6869
1 9.44145 17.0247 16.3064
2 9.43367 15.1194 16.6665
1 7.52417 15.1658 17.0537
1 9.44788 15.1051 18.6452
2 7.53085 15.1826 19.0204
1 7.54484 17.0878 19.4248
1 7.55571 15.1789 20.9974
2 7.51209 17.0995 21.4018
1 9.41715 17.1301 21.7983
1 7.51286 17.0615 23.3833
2 9.42127 17.0671 23.7727
1 9.43962 15.1533 24.1614
1 9.43567 17.0648 25.7432
2 9.43737 15.1562 26.1502
1 7.52751 15.153 26.5523
1 9.43467 15.1573 28.1344
2 7.53708 19.0007 0.0130655
1 7.57745 20.9368 0.427336
1 7.52711 18.9832 1.97812
2 7.53955 20.8803 2.41013
1 9.43639 20.884 2.80817
1 7.53031 20.8779 4.37745
2 9.45531 20.8951 4.77671
1 9.4655 18.9829 5.16049
1 9.42278 20.8932 6.75574
2 9.44089 18.9801 7.13609
1 7.52561 18.9616 7.52867
1 9.44028 18.9551 9.10736
2 7.5273 18.9428 9.50317
1 7.51702 20.8398 9.85996
1 7.53202 18.9525 11.494
2 7.52039 20.8314 11.8622
1 9.43104 20.8354 12.2749
1 7.57202 20.9399 13.8565
2 9.43225 20.6083 14.1652
1 9.43064 18.8557 14.7082
1 9.42781 21.0956 15.998
2 9.43119 18.9712 16.6371
1 7.54546 19.0205 17.0249
1 9.42478 19.0421 18.61
2 7.51821 18.9842 19.0072
1 7.50905 20.8901 19.4128
1 7.45614 19.0286 20.9919
2 7.78696 20.9026 21.2852
1 9.53942 20.8676 21.8129
1 7.316 20.8647 23.1171
2 9.41428 20.8685 23.7259
1 9.37627 18.9779 24.1503
1 9.38015 20.8804 25.6735
2 9.42593 18.9769 26.1379
1 7.52843 18.9622 26.5621
1 9.43285 18.9805 28.1249
2 7.22857 22.7973 0.137648
1 7.57586 24.6594 0.406872
1 7.48985 22.7998 2.01921
2 7.51897 24.7101 2.39673
1 9.43009 24.6983 2.79974
1 7.52132 24.6879 4.3567
2 9.44002 24.6815 4.76562
1 9.43707 22.7918 5.18509
1 9.39137 24.7082 6.7478
2 9.42652 22.8036 7.16295
1 7.5135 22.8266 7.55849
1 9.38235 22.873 9.15109
2 7.50213 22.7585 9.5141
1 7.42532 25.0162 10.2
1 7.524 22.6918 11.4327
2 7.49876 24.4338 11.9927
1 9.36118 24.8244 12.262
1 7.58196 24.5942 13.8916
2 9.43302 24.9804 14.1736
1 9.44519 24.4889 16.0075
2 9.42623 22.7896 16.8536
1 7.53248 22.7903 17.0934
1 9.42218 22.7728 18.7406
2 7.49453 22.7862 19.0377
1 7.51172 24.6809 19.4138
1 7.48229 22.7892 21.0065
2 7.24821 24.6811 21.2981
1 7.69407 24.7381 23.1482
2 9.43086 24.7213 23.9175
1 9.36768 22.7936 24.1125
1 9.39881 24.6888 25.795
2 9.41202 22.7675 25.998
1 7.71042 22.7567 26.8317
2 11.3211 -0.140261 0.0127839
1 11.3292 1.78389 0.405131
1 11.3477 -0.126988 1.98979
2 11.3319 1.78815 2.37917
1 13.24 1.80427 2.78821
1 11.3253 1.81494 4.35903
2 13.2415 1.86295 4.77086
1 13.2599 -0.00230861 5.17945
1 13.2566 1.83021 6.78535
2 13.2856 -0.114338 7.10386
1 11.4132 -0.170631 7.45094
1 13.277 -0.154724 9.07704
2 11.4139 -0.122818 9.49806
1 11.381 1.77477 9.91142
1 11.3467 -0.11125 11.4982
2 11.3207 1.79604 11.8855
1 13.2422 1.79578 12.3025
1 11.3302 1.84202 13.8492
2 13.2418 1.83808 14.2778
1 13.2059 -0.0920356 14.6425
1 13.2348 1.8252 16.273
2 13.2156 -0.0956934 16.5974
1 11.3107 -0.0977268 17.0369
1 13.2349 -0.106073 18.5654
2 11.3274 -0.160058 19.0371
1 11.3562 1.75803 19.6457
1 11.1995 -0.336802 21.0122
2 11.3507 1.41817 21.534
1 13.2286 1.7001 21.8246
1 11.3431 1.79339 23.4051
2 13.2435 1.78173 23.818
1 13.1891 -0.12957 24.1736
1 13.2458 1.7869 25.7709
2 13.225 -0.123667 26.157
1 11.3205 -0.106926 26.5596
1 13.2302 -0.152323 28.136
2 11.3284 3.70191 0.00267787
1 11.3452 5.61738 0.40848
1 11.3267 3.69951 1.97795
2 11.3374 5.61204 2.38535
1 13.2429 5.58362 2.78785
1 11.331 5.61775 4.3647
2 13.2446 5.61543 4.76323
1 13.2437 3.72679 5.17885
1 13.2423 5.63025 6.74515
2 13.2423 3.73322 7.1569
1 11.32 3.68516 7.52874
1 13.2394 3.71244 9.12178
2 11.3229 3.66993 9.47814
1 11.3198 5.61005 9.8072
1 11.3129 3.71025 11.441
2 11.3484 5.6189 11.6883
1 13.0469 5.62291 12.5396
2 13.5564 5.60294 14.3706
1 13.2245 3.75439 14.6701
1 13.3225 5.63107 16.2707
2 13.2768 3.73946 16.6291
1 11.3528 3.68449 16.8629
1 13.1495 3.7902 18.6631
2 11.3468 3.26887 18.6385
2 11.3301 5.9376 21.7688
1 13.1766 5.61138 21.8387
1 11.3384 5.61347 23.569
2 13.2615 5.5934 23.853
1 13.2801 3.69117 24.1705
1 13.2834 5.61423 25.7934
2 13.2439 3.69872 26.1539
1 11.3287 3.70863 26.547
1 13.2371 3.69169 28.1273
2 11.349 7.52739 0.0104118
1 11.3323 9.43311 0.405535
1 11.3674 7.52773 1.9915
2 11.358 9.43959 2.38054
1 13.2919 9.46733 2.77405
1 11.3459 9.41665 4.34759
2 13.2439 9.41542 4.72988
1 13.2594 7.51415 5.13156
1 13.2472 9.43813 6.684
2 13.2531 7.53665 7.12027
1 11.3453 7.54435 7.5102
1 13.2464 7.53512 9.10423
2 11.3492 7.5691 9.46494
1 11.4048 9.49085 9.91347
1 11.3417 7.51993 11.4173
2 11.35 9.41471 11.8999
1 13.2357 9.42325 12.3007
1 11.3484 9.4195 13.8801
2 13.243 9.40301 14.2825
1 13.2362 7.46507 14.6697
1 13.3118 9.39613 16.2623
2 13.2067 7.5089 16.6079
1 11.2987 7.63055 16.9702
1 13.0409 7.562 18.5372
2 11.2415 8.00811 18.8966
1 11.3191 9.75944 19.676
1 11.3029 7.41288 20.7121
2 11.3432 9.13733 21.4568
1 13.2579 9.32717 21.7884
1 11.3434 9.38868 23.3352
2 13.2395 9.41416 23.789
1 13.2213 7.50946 24.149
1 13.2248 9.41871 25.7436
2 13.2477 7.52321 26.1516
1 11.3428 7.50668 26.5588
1 13.2655 7.57275 28.1444
2 11.332 11.3381 -0.0109166
1 11.3324 13.2433 0.405552
1 11.3438 11.3381 1.97438
2 11.358 13.2373 2.38008
1 13.2917 13.2072 2.77443
1 11.3453 13.2557 4.34701
2 13.2441 13.2485 4.73216
1 13.2513 11.3341 5.06402
1 13.2423 13.2237 6.69223
2 13.25 11.3311 6.94659
1 11.5526 11.3372 7.79313
2 11.0693 11.3454 9.62937
1 11.405 13.1991 9.93132
1 11.3268 11.3361 11.5181
2 11.3591 13.2469 11.9163
1 13.2548 13.2424 12.3167
1 11.347 13.241 13.8843
2 13.2697 13.2499 14.2818
1 13.2982 11.3296 14.6554
1 13.2665 13.238 16.2548
2 13.2937 11.3192 16.5977
1 11.3521 11.33 16.9389
1 13.2709 11.2714 18.5624
2 11.3498 11.4273 18.808
1 11.3474 13.0879 19.664
2 11.3392 13.528 21.5186
1 13.1973 13.1999 21.8121
1 11.3378 13.2631 23.4074
2 13.2539 13.2373 23.7894
1 13.2154 11.3244 24.1291
1 13.2381 13.2425 25.7471
2 13.196 11.3306 26.0834
1 11.3073 11.3334 26.5209
1 13.2192 11.336 28.047
2 11.3482 15.1524 0.0122769
1 11.3462 17.0685 0.410249
1 11.3664 15.1498 1.98869
2 11.3401 17.0671 2.3826
1 13.2439 17.0815 2.79031
1 11.3319 17.036 4.36053
2 13.2459 17.0056 4.77091
1 13.2563 15.1397 5.14856
1 13.2443 17.0272 6.78172
2 13.2476 15.1195 7.13636
1 11.3421 15.1453 7.53927
1 13.2463 15.1377 9.11344
2 11.3502 15.1319 9.51848
1 11.3511 17.0618 9.91514
1 11.3451 15.1446 11.4871
2 11.3465 17.0552 11.8927
1 13.2583 17.0584 12.2979
1 11.3504 17.0339 13.8694
2 13.2694 17.0522 14.2721
1 13.2504 15.1515 14.6881
1 13.2278 17.0583 16.2535
2 13.252 15.1478 16.6657
1 11.3415 15.0981 17.078
1 13.2146 15.1197 18.6535
2 11.3315 15.1604 19.0518
1 11.3232 17.1038 19.3702
1 11.3303 15.2833 20.9851
2 11.335 17.1403 21.3947
1 13.2488 17.0931 21.8061
1 11.3341 17.0843 23.3788
2 13.2496 17.0656 23.7806
1 13.2419 15.1538 24.167
1 13.2556 17.0577 25.7614
2 13.2508 15.147 26.156
1 11.3454 15.1611 26.5624
1 13.2663 15.108 28.1464
2 11.3276 18.9959 0.0125009
1 11.2657 20.9288 0.411049
1 11.3467 18.9865 1.98928
2 11.3214 20.8893 2.38604
1 13.2432 20.8811 2.75271
1 11.3858 20.9392 4.35968
2 13.2484 20.6159 4.64476
1 13.2465 18.8652 5.19471
1 13.244 21.0998 6.4838
2 13.2471 18.9691 7.12448
1 11.3592 19.0231 7.52469
1 13.2468 19.0132 9.09492
2 11.3411 18.9757 9.51759
1 11.3166 20.8864 9.91721
1 11.3388 18.9696 11.5031
2 11.3383 20.8878 11.8822
1 13.2332 20.8768 12.3011
1 11.2949 20.932 13.8683
2 13.2243 20.8896 14.276
1 13.2501 18.9702 14.664
1 13.2579 20.8811 16.2565
2 13.2427 18.9688 16.6452
1 11.3189 19.0332 17.0258
1 13.2424 18.9623 18.6116
2 11.3375 19.0017 19.0038
1 11.372 20.8854 19.416
1 11.3661 18.9953 20.9836
2 11.4004 20.8886 21.4085
1 13.2624 20.8808 21.8247
1 11.3542 20.874 23.4288
2 13.2482 20.8921 23.8007
1 13.255 18.9745 24.19
1 13.2086 20.9111 25.7668
2 13.237 18.9824 26.1571
1 11.3293 18.9794 26.5477
1 13.2317 19.0122 28.1354
2 11.6087 22.7883 0.110876
1 11.2661 24.6474 0.411035
1 11.3493 22.7887 1.99718
2 11.3182 24.6871 2.38754
1 13.2411 24.6954 2.75342
1 11.3772 24.6423 4.3606
2 13.2437 24.9581 4.64285
1 13.2512 24.469 6.47819
2 13.238 22.7852 7.34855
1 11.3326 22.79 7.61406
1 13.2403 22.7826 9.23004
2 11.296 22.7969 9.56713
1 11.3618 24.699 9.92251
1 11.2701 22.798 11.5202
2 11.3154 24.7025 11.8823
1 13.229 24.7015 12.3028
1 11.2717 24.63 13.8461
2 13.2126 24.6908 14.2657
1 13.2235 22.7906 14.6825
1 13.2192 24.7129 16.2381
2 13.2061 22.8013 16.6545
1 11.3204 22.7696 17.0969
1 13.2499 22.8394 18.6552
2 11.3498 22.7632 19.0417
1 11.3833 24.6536 19.3765
1 11.3656 22.7912 21.0068
2 11.6712 24.6025 21.2937
1 13.4235 24.7921 21.8341
1 11.1682 24.6674 23.1417
2 13.2362 24.7119 23.7743
1 13.174 22.8195 24.1706
1 13.148 24.6806 25.745
2 13.2401 22.7976 26.1581
1 11.1277 22.771 26.7965
1 13.3592 22.7954 28.0921
2 15.1452 -0.121671 0.0116002
1 15.1455 1.77561 0.399844
1 15.1399 -0.11976 2.00494
2 15.1514 1.78654 2.38317
1 17.0635 1.78747 2.77999
1 15.1585 1.81831 4.36067
2 17.0631 1.79017 4.76114
1 17.0634 -0.132323 5.15057
1 17.0631 1.7826 6.73857
2 17.0688 -0.128988 7.13235
1 15.1565 -0.164478 7.51361
1 17.0656 -0.100147 9.1048
2 15.1684 -0.110783 9.5174
1 15.1491 1.79904 9.9132
1 15.1564 -0.100203 11.5125
2 15.1355 1.82035 11.8829
1 17.0483 1.79554 12.2753
1 15.181 1.88186 13.873
2 17.0458 1.53268 14.1608
1 17.0695 -0.227218 14.6876
1 17.0518 2.02884 15.9922
2 17.094 -0.114183 16.5902
1 15.1684 -0.0807475 16.9135
1 17.0548 -0.0741915 18.5301
2 15.146 -0.142718 18.79
1 15.1125 1.52952 19.657
2 15.115 1.96783 21.4959
1 16.9952 1.71535 21.8076
1 15.1388 1.76733 23.3876
2 17.0533 1.7834 23.7892
1 17.0761 -0.117034 24.1818
1 17.0621 1.79915 25.7536
2 17.0596 -0.108289 26.1633
1 15.1404 -0.129675 26.551
1 17.0606 -0.107569 28.1363
2 15.1511 3.6784 -0.0110378
1 15.1589 5.58379 0.357068
1 15.1532 3.68102 1.96649
2 15.1551 5.54622 2.37621
1 17.0654 5.58813 2.78908
1 15.1575 5.60439 4.36183
2 17.0645 5.61499 4.76615
1 17.0629 3.70353 5.16826
1 17.0616 5.62119 6.73944
2 17.0604 3.70288 7.13929
1 15.1563 3.7171 7.54476
1 17.0561 3.71075 9.1223
2 15.1481 3.71224 9.51815
1 15.1041 5.62359 9.93474
1 15.0953 3.72206 11.493
2 15.1369 5.60137 11.8921
1 17.0924 5.6107 12.1943
1 15.311 5.49919 13.8212
2 17.1368 5.82517 14.0855
1 17.0714 5.41732 15.9551
2 17.0405 3.72399 16.8504
1 15.1384 3.71259 17.1713
1 16.9918 3.72146 18.7427
2 15.0766 3.69638 19.0771
1 15.2099 6.00575 19.7262
1 15.0893 3.71598 20.9446
2 15.1181 5.45155 21.5157
1 17.0055 5.71332 21.8334
1 15.1338 5.64109 23.3918
2 17.0481 5.63292 23.8017
1 17.0233 3.70845 24.1459
1 17.0526 5.61562 25.7661
2 17.0587 3.70601 26.141
1 15.1539 3.68849 26.5447
1 17.0642 3.69778 28.1254
2 15.1549 7.52692 0.0239978
1 15.1329 9.64881 0.658073
1 15.1606 7.40927 1.95361
2 15.1606 9.16312 2.4908
1 17.0201 9.50829 2.78179
1 15.1589 9.40552 4.37596
2 17.061 9.44796 4.78138
1 17.0583 7.53377 5.15437
1 17.0139 9.44753 6.76376
2 17.051 7.53263 7.13975
1 15.1511 7.52185 7.54257
1 17.0462 7.54985 9.13079
2 15.1395 7.54167 9.53013
1 15.0909 9.4687 9.94579
1 15.1119 7.50147 11.5213
2 15.1268 9.41533 11.9124
1 17.0474 9.46079 12.2531
1 15.1404 9.39767 13.8739
2 17.055 9.44938 14.2243
1 17.1038 7.59798 14.5492
1 17.0711 9.37512 16.28
2 17.0757 7.42742 16.3952
1 15.3354 7.43637 17.1263
2 14.8148 7.55938 18.8728
1 15.2019 9.13647 19.6992
2 15.1457 9.68566 21.5105
1 17.0124 9.36576 21.8231
1 15.1446 9.44635 23.3949
2 17.0642 9.4158 23.7961
1 17.0471 7.52848 24.2031
1 17.1288 9.44993 25.7669
2 17.0655 7.5348 26.1709
1 15.1594 7.57759 26.5784
1 17.051 7.60724 28.154
2 15.0831 11.3376 -0.222121
1 15.1331 13.0259 0.658116
2 15.1606 13.5111 2.49061
1 17.0203 13.1674 2.78127
1 15.1595 13.2657 4.37519
2 17.0609 13.228 4.78139
1 17.017 11.3375 5.20298
1 17.0146 13.2277 6.76244
2 17.0572 11.3378 7.16651
1 14.9407 11.3323 7.80532
1 17.1742 11.3357 9.09188
2 15.4258 11.3308 9.64531
1 15.0844 13.1925 9.92408
1 15.171 11.3411 11.5363
2 15.1379 13.2604 11.8961
1 17.0572 13.2206 12.2593
1 15.2013 13.3241 13.8691
2 17.0608 13.006 14.1597
1 17.0505 11.2606 14.7146
1 17.0629 13.4815 16.0026
2 17.0598 11.3277 16.6351
1 15.1914 11.3484 17.0404
1 17.0383 11.3185 18.6113
2 15.1538 11.3719 19.0124
1 15.1414 13.2741 19.3805
1 15.1387 11.4277 20.9412
2 15.1323 13.2878 21.3899
1 17.0586 13.2522 21.798
1 15.1531 13.2447 23.3686
2 17.0656 13.2487 23.772
1 17.1123 11.3318 24.1627
1 17.1238 13.2236 25.7522
2 17.097 11.3369 26.1169
1 15.1231 11.3349 26.4061
1 16.949 11.338 28.0329
2 15.1567 15.1508 0.0263507
1 15.1532 17.0974 0.362257
1 15.1622 15.265 1.95377
2 15.1541 17.1279 2.37646
1 17.065 17.0931 2.78362
1 15.1612 17.0531 4.36114
2 17.0643 17.0661 4.76315
1 17.0588 15.1434 5.15582
1 17.0623 17.0696 6.73642
2 17.0518 15.1479 7.13426
1 15.1515 15.1466 7.53698
1 17.0513 15.1236 9.12141
2 15.144 15.1287 9.50971
1 15.1431 17.0595 9.90075
1 15.1609 15.1457 11.4727