1763
Atoms. Timestep: 64
2 -0.151695 -0.151695 0.07985
1 -0.151694 1.76223 0.472592
1 -0.151694 -0.151695 2.05235
2 -0.151695 1.76223 2.44509
1 1.76223 1.76223 2.83783
1 -0.151695 1.76223 4.41759
2 1.76223 1.76223 4.81033
1 1.76223 -0.151695 5.20308
1 1.76223 1.76223 6.78283
2 1.76223 -0.151694 7.17557
1 -0.151695 -0.151695 7.56832
1 1.76223 -0.151695 9.14807
2 -0.151695 -0.151694 9.54082
1 -0.151695 1.76223 9.93356
1 -0.151694 -0.151695 11.5133
2 -0.151695 1.76223 11.9061
1 1.76223 1.76223 12.2988
1 -0.151694 1.76223 13.8786
2 1.76223 1.76223 14.2713
1 1.76223 -0.151693 14.664
1 1.76223 1.76223 16.2438
2 1.76223 -0.151693 16.6365
1 -0.151695 -0.151693 17.0293
1 1.76223 -0.151701 18.609
2 -0.151694 -0.151695 19.0018
1 -0.151695 1.76223 19.3945
1 -0.151698 -0.151694 20.9743
2 -0.151694 1.76223 21.367
1 1.76223 1.76223 21.7598
1 -0.151694 1.76223 23.3395
2 1.76223 1.76223 23.7323
1 1.76223 -0.151697 24.125
1 1.76223 1.76223 25.7048
2 1.76222 -0.151693 26.0975
1 -0.151695 -0.151694 26.4903
1 1.76222 -0.151694 28.07
2 -0.151695 3.67615 0.07985
1 -0.151694 5.59007 0.472592
1 -0.151695 3.67615 2.05235
2 -0.151695 5.59007 2.44509
1 1.76223 5.59007 2.83783
1 -0.151695 5.59007 4.41759
2 1.76223 5.59007 4.81033
1 1.76223 3.67615 5.20308
1 1.76223 5.59007 6.78283
2 1.76223 3.67615 7.17558
1 -0.151694 3.67615 7.56832
1 1.76223 3.67615 9.14807
2 -0.151694 3.67615 9.54082
1 -0.151695 5.59007 9.93356
1 -0.151695 3.67615 11.5133
2 -0.151695 5.59007 11.9061
1 1.76223 5.59007 12.2988
1 -0.151694 5.59007 13.8786
2 1.76223 5.59007 14.2713
1 1.76223 3.67615 14.664
1 1.76223 5.59007 16.2438
2 1.76223 3.67615 16.6365
1 -0.151694 3.67615 17.0293
1 1.76223 3.67615 18.609
2 -0.151695 3.67615 19.0018
1 -0.151695 5.59007 19.3945
1 -0.151693 3.67615 20.9743
2 -0.151694 5.59007 21.367
1 1.76223 5.59006 21.7598
1 -0.151694 5.59007 23.3395
2 1.76223 5.59007 23.7323
1 1.76223 3.67615 24.125
1 1.76223 5.59007 25.7048
2 1.76223 3.67615 26.0975
1 -0.151694 3.67615 26.4903
1 1.76223 3.67615 28.07
2 -0.151695 7.50399 0.07985
1 -0.151695 9.41791 0.472592
1 -0.151694 7.50399 2.05235
2 -0.151695 9.41791 2.44509
1 1.76222 9.41791 2.83783
1 -0.151694 9.41791 4.41759
2 1.76223 9.41791 4.81033
1 1.76223 7.50399 5.20308
1 1.76223 9.41791 6.78283
2 1.76223 7.50399 7.17557
1 -0.151695 7.50399 7.56832
1 1.76223 7.50399 9.14807
2 -0.151695 7.50399 9.54082
1 -0.151694 9.41791 9.93356
1 -0.151694 7.50399 11.5133
2 -0.151694 9.41791 11.9061
1 1.76222 9.41791 12.2988
1 -0.151695 9.41791 13.8786
2 1.76222 9.41791 14.2713
1 1.76223 7.50399 14.664
1 1.76224 9.41792 16.2438
2 1.76223 7.50399 16.6365
1 -0.151695 7.50399 17.0293
1 1.76223 7.50399 18.609
2 -0.151694 7.50399 19.0018
1 -0.151687 9.41791 19.3945
1 -0.151698 7.50399 20.9743
2 -0.151702 9.4179 21.367
1 1.76223 9.41791 21.7598
1 -0.151698 9.41791 23.3395
2 1.76222 9.41792 23.7323
1 1.76223 7.50399 24.125
1 1.76223 9.41792 25.7048
2 1.76222 7.50399 26.0975
1 -0.151695 7.50399 26.4903
1 1.76222 7.50399 28.07
2 -0.151693 11.3318 0.0798502
1 -0.151697 13.2457 0.472594
1 -0.151694 11.3318 2.05235
2 -0.151692 13.2458 2.44509
1 1.76222 13.2457 2.83783
1 -0.151692 13.2457 4.41759
2 1.76223 13.2458 4.81033
1 1.76223 11.3318 5.20307
1 1.76223 13.2457 6.78283
2 1.76223 11.3318 7.17558
1 -0.151695 11.3318 7.56832
1 1.76223 11.3318 9.14808
2 -0.151695 11.3318 9.54082
1 -0.151693 13.2458 9.93356
1 -0.151694 11.3318 11.5133
2 -0.151693 13.2458 11.9061
1 1.76222 13.2457 12.2988
1 -0.151697 13.2457 13.8786
2 1.76222 13.2457 14.2713
1 1.76223 11.3318 14.664
1 1.76222 13.2458 16.2438
2 1.76224 11.3318 16.6365
1 -0.151699 11.3318 17.0293
1 1.7622 11.3318 18.609
2 -0.151702 11.3318 19.0018
1 -0.151711 13.2457 19.3945
1 -0.151674 11.3318 20.9743
2 -0.151678 13.2457 21.367
1 1.76214 13.2456 21.7599
1 -0.15171 13.2458 23.3395
2 1.76233 13.2457 23.7322
1 1.76225 11.3318 24.125
1 1.76223 13.2457 25.7048
2 1.76222 11.3318 26.0975
1 -0.151693 11.3318 26.4903
1 1.76223 11.3318 28.07
2 -0.151716 15.1597 0.0798383
1 -0.15172 17.0736 0.472605
1 -0.1517 15.1597 2.05235
2 -0.151686 17.0736 2.44509
1 1.76222 17.0736 2.83783
1 -0.151689 17.0736 4.41759
2 1.76223 17.0736 4.81032
1 1.76223 15.1597 5.20308
1 1.76223 17.0736 6.78283
2 1.76223 15.1597 7.17558
1 -0.151695 15.1597 7.56832
1 1.76223 15.1597 9.14808
2 -0.151695 15.1597 9.54082
1 -0.151693 17.0736 9.93356
1 -0.151693 15.1597 11.5133
2 -0.151688 17.0736 11.9061
1 1.76222 17.0736 12.2988
1 -0.151697 17.0736 13.8786
2 1.76221 17.0736 14.2713
1 1.76223 15.1597 14.6641
1 1.76227 17.0736 16.2438
2 1.7624 15.1597 16.6366
1 -0.151698 15.1596 17.0293
1 1.7622 15.1598 18.609
2 -0.151722 15.1597 19.0017
1 -0.151669 17.0736 19.3946
1 -0.151859 15.1595 20.9742
2 -0.152446 17.0736 21.3673
1 1.75925 17.0736 21.7607
1 -0.152469 17.0736 23.3403
2 1.75966 17.0736 23.7339
1 1.762 15.1592 24.1251
1 1.76169 17.0736 25.7054
2 1.76234 15.1597 26.0975
1 -0.151693 15.1597 26.4902
1 1.76223 15.1596 28.07
2 -0.151716 18.9875 0.0798383
1 -0.151697 20.9014 0.472594
1 -0.1517 18.9875 2.05235
2 -0.151692 20.9014 2.44509
1 1.76222 20.9014 2.83783
1 -0.151692 20.9014 4.41759
2 1.76223 20.9014 4.81033
1 1.76223 18.9875 5.20308
1 1.76223 20.9014 6.78283
2 1.76223 18.9875 7.17558
1 -0.151695 18.9875 7.56832
1 1.76223 18.9875 9.14808
2 -0.151695 18.9875 9.54082
1 -0.151693 20.9014 9.93356
1 -0.151693 18.9875 11.5133
2 -0.151693 20.9014 11.9061
1 1.76222 20.9014 12.2988
1 -0.151697 20.9014 13.8786
2 1.76222 20.9014 14.2713
1 1.76223 18.9875 14.6641
1 1.76222 20.9014 16.2438
2 1.7624 18.9875 16.6366
1 -0.151698 18.9875 17.0293
1 1.7622 18.9874 18.609
2 -0.151722 18.9875 19.0017
1 -0.151711 20.9015 19.3945
1 -0.151859 18.9876 20.9742
2 -0.151678 20.9014 21.367
1 1.76214 20.9016 21.7599
1 -0.15171 20.9014 23.3395
2 1.76233 20.9015 23.7322
1 1.762 18.988 24.1251
1 1.76223 20.9014 25.7048
2 1.76234 18.9875 26.0975
1 -0.151693 18.9875 26.4902
1 1.76223 18.9876 28.07
2 -0.151693 22.8154 0.0798502
1 -0.151695 24.7293 0.472592
1 -0.151694 22.8154 2.05235
2 -0.151695 24.7293 2.44509
1 1.76222 24.7293 2.83783
1 -0.151694 24.7293 4.41759
2 1.76223 24.7293 4.81033
1 1.76223 22.8154 5.20307
1 1.76223 24.7293 6.78283
2 1.76223 22.8154 7.17558
1 -0.151695 22.8154 7.56832
1 1.76223 22.8154 9.14808
2 -0.151695 22.8154 9.54082
1 -0.151694 24.7293 9.93356
1 -0.151694 22.8154 11.5133
2 -0.151694 24.7293 11.9061
1 1.76222 24.7293 12.2988
1 -0.151695 24.7293 13.8786
2 1.76222 24.7293 14.2713
1 1.76223 22.8154 14.664
1 1.76224 24.7293 16.2438
2 1.76224 22.8153 16.6365
1 -0.151699 22.8154 17.0293
1 1.7622 22.8154 18.609
2 -0.151702 22.8154 19.0018
1 -0.151687 24.7293 19.3945
1 -0.151674 22.8154 20.9743
2 -0.151702 24.7293 21.367
1 1.76223 24.7293 21.7598
1 -0.151698 24.7293 23.3395
2 1.76222 24.7293 23.7323
1 1.76225 22.8153 24.125
1 1.76223 24.7293 25.7048
2 1.76222 22.8153 26.0975
1 -0.151693 22.8154 26.4903
1 1.76223 22.8154 28.07
2 3.67614 -0.151691 0.0798511
1 3.67615 1.76223 0.472593
1 3.67615 -0.151692 2.05235
2 3.67615 1.76223 2.44509
1 5.59007 1.76223 2.83783
1 3.67615 1.76223 4.41759
2 5.59007 1.76223 4.81033
1 5.59007 -0.151695 5.20307
1 5.59007 1.76223 6.78283
2 5.59007 -0.151695 7.17557
1 3.67615 -0.151695 7.56832
1 5.59007 -0.151696 9.14808
2 3.67615 -0.151695 9.54082
1 3.67615 1.76223 9.93356
1 3.67615 -0.151693 11.5133
2 3.67615 1.76223 11.9061
1 5.59007 1.76223 12.2988
1 3.67615 1.76223 13.8786
2 5.59007 1.76222 14.2713
1 5.59007 -0.151695 14.6641
1 5.59007 1.76222 16.2438
2 5.59008 -0.151693 16.6365
1 3.67615 -0.151703 17.0293
1 5.59008 -0.151718 18.6091
2 3.67615 -0.151685 19.0018
1 3.67615 1.76223 19.3945
1 3.67615 -0.151702 20.9743
2 3.67614 1.76223 21.367
1 5.59007 1.76221 21.7598
1 3.67615 1.76222 23.3395
2 5.59006 1.76223 23.7323
1 5.59002 -0.15167 24.125
1 5.59006 1.76223 25.7048
2 5.59008 -0.151713 26.0975
1 3.67615 -0.151705 26.4902
1 5.59007 -0.151701 28.07
2 3.67615 3.67615 0.0798498
1 3.67615 5.59007 0.472593
1 3.67615 3.67615 2.05235
2 3.67615 5.59007 2.44509
1 5.59007 5.59007 2.83783
1 3.67615 5.59007 4.41759
2 5.59007 5.59007 4.81033
1 5.59007 3.67615 5.20308
1 5.59007 5.59007 6.78283
2 5.59007 3.67615 7.17558
1 3.67615 3.67615 7.56832
1 5.59007 3.67615 9.14807
2 3.67615 3.67615 9.54082
1 3.67615 5.59007 9.93356
1 3.67615 3.67615 11.5133
2 3.67615 5.59007 11.9061
1 5.59007 5.59007 12.2988
1 3.67615 5.59007 13.8786
2 5.59007 5.59007 14.2713
1 5.59007 3.67615 14.664
1 5.59007 5.59007 16.2438
2 5.59007 3.67615 16.6365
1 3.67615 3.67615 17.0293
1 5.59007 3.67615 18.609
2 3.67615 3.67615 19.0018
1 3.67615 5.59006 19.3945
1 3.67614 3.67615 20.9743
2 3.67614 5.59006 21.367
1 5.59007 5.59009 21.7598
1 3.67615 5.59007 23.3395
2 5.59006 5.59006 23.7323
1 5.59006 3.67615 24.125
1 5.59006 5.59006 25.7048
2 5.59007 3.67615 26.0975
1 3.67615 3.67615 26.4902
1 5.59007 3.67615 28.07
2 3.67614 7.50398 0.0798511
1 3.67614 9.41791 0.472592
1 3.67615 7.50399 2.05235
2 3.67615 9.41791 2.44509
1 5.59006 9.4179 2.83784
1 3.67615 9.41791 4.41759
2 5.59007 9.41791 4.81033
1 5.59007 7.50399 5.20307
1 5.59007 9.41791 6.78283
2 5.59007 7.50399 7.17557
1 3.67615 7.50399 7.56832
1 5.59007 7.50399 9.14808
2 3.67615 7.50399 9.54082
1 3.67615 9.41791 9.93356
1 3.67615 7.50399 11.5133
2 3.67614 9.41791 11.9061
1 5.59005 9.41791 12.2988
1 3.67615 9.41791 13.8786
2 5.59005 9.41792 14.2713
1 5.59007 7.50399 14.6641
1 5.59012 9.41792 16.2438
2 5.59008 7.50399 16.6365
1 3.67615 7.504 17.0293
1 5.59008 7.50401 18.6091
2 3.67615 7.50398 19.0018
1 3.67613 9.4179 19.3945
1 3.67615 7.504 20.9743
2 3.67615 9.41791 21.367
1 5.59012 9.41822 21.7597
1 3.67614 9.41789 23.3395
2 5.58993 9.41785 23.7323
1 5.59002 7.50396 24.125
1 5.59006 9.41795 25.7048
2 5.59008 7.50401 26.0975
1 3.67615 7.504 26.4902
1 5.59007 7.50399 28.07
2 3.67616 11.3318 0.0798476
1 3.6761 13.2458 0.472608
1 3.67614 11.3318 2.05236
2 3.67615 13.2457 2.44511
1 5.59007 13.2457 2.83786
1 3.67614 13.2457 4.4176
2 5.59006 13.2457 4.81035
1 5.59006 11.3318 5.20307
1 5.59006 13.2457 6.78283
2 5.59007 11.3318 7.17557
1 3.67615 11.3318 7.56832
1 5.59007 11.3318 9.14808
2 3.67615 11.3318 9.54082
1 3.67614 13.2458 9.93355
1 3.67614 11.3318 11.5133
2 3.67612 13.2457 11.906
1 5.59006 13.2458 12.2988
1 3.67616 13.2457 13.8785
2 5.59008 13.2459 14.2714
1 5.59011 11.3319 14.6641
1 5.59008 13.2458 16.244
2 5.59016 11.3319 16.6366
1 3.67619 11.3318 17.0293
1 5.58991 11.3317 18.6091
2 3.67609 11.3317 19.0017
1 3.67641 13.2453 19.3939
1 3.67645 11.3319 20.9744
2 3.6763 13.2454 21.3669
1 5.5903 13.2459 21.7596
1 3.67605 13.2456 23.3393
2 5.58954 13.2453 23.7324
1 5.58995 11.3317 24.1249
1 5.59004 13.2454 25.7053
2 5.59012 11.3319 26.0974
1 3.67616 11.3319 26.4902
1 5.59017 11.3319 28.0699
2 3.6762 15.1597 0.0797505
1 3.67606 17.0736 0.472675
1 3.67611 15.1597 2.05235
2 3.67614 17.0736 2.44511
1 5.59006 17.0736 2.83783
1 3.67615 17.0736 4.41759
2 5.59006 17.0736 4.81034
1 5.59007 15.1597 5.20307
1 5.59007 17.0736 6.78284
2 5.59007 15.1597 7.17557
1 3.67615 15.1597 7.56832
1 5.59007 15.1597 9.14808
2 3.67615 15.1597 9.54082
1 3.67616 17.0736 9.93357
1 3.67616 15.1597 11.5133
2 3.67621 17.0736 11.9061
1 5.59013 17.0736 12.2989
1 3.67618 17.0736 13.8785
2 5.59011 17.0736 14.2715
1 5.59018 15.1597 14.6643
1 5.59054 17.0736 16.2439
2 5.59075 15.16 16.637
1 3.67652 15.1595 17.0295
1 5.58975 15.1592 18.6093
2 3.67641 15.1595 19.0015
1 3.67383 17.0736 19.3934
1 3.67176 15.1579 20.973
2 3.66092 17.0736 21.3666
1 5.55822 17.0736 21.7611
1 3.66891 17.0736 23.3484
2 5.58169 17.0736 23.7367
1 5.58788 15.1587 24.1259
1 5.588 17.0736 25.7067
2 5.59059 15.1596 26.0976
1 3.67624 15.1598 26.4902
1 5.59018 15.1596 28.07
2 3.6762 18.9875 0.0797505
1 3.6761 20.9014 0.472608
1 3.67611 18.9875 2.05235
2 3.67615 20.9014 2.44511
1 5.59007 20.9014 2.83786
1 3.67614 20.9014 4.4176
2 5.59006 20.9014 4.81035
1 5.59007 18.9875 5.20307
1 5.59006 20.9014 6.78283
2 5.59007 18.9875 7.17557
1 3.67615 18.9875 7.56832
1 5.59007 18.9875 9.14808
2 3.67615 18.9875 9.54082
1 3.67614 20.9014 9.93355
1 3.67616 18.9875 11.5133
2 3.67612 20.9014 11.906
1 5.59006 20.9014 12.2988
1 3.67616 20.9014 13.8785
2 5.59008 20.9013 14.2714
1 5.59018 18.9875 14.6643
1 5.59008 20.9014 16.244
2 5.59075 18.9872 16.637
1 3.67652 18.9877 17.0295
1 5.58975 18.9879 18.6093
2 3.67641 18.9877 19.0015
1 3.67641 20.9019 19.3939
1 3.67176 18.9893 20.973
2 3.6763 20.9018 21.3669
1 5.5903 20.9013 21.7596
1 3.67605 20.9016 23.3393
2 5.58954 20.9019 23.7324
1 5.58788 18.9885 24.1259
1 5.59004 20.9017 25.7053
2 5.59059 18.9876 26.0976
1 3.67624 18.9874 26.4902
1 5.59018 18.9876 28.07
2 3.67616 22.8154 0.0798476
1 3.67614 24.7293 0.472592
1 3.67614 22.8154 2.05236
2 3.67615 24.7293 2.44509
1 5.59006 24.7293 2.83784
1 3.67615 24.7293 4.41759
2 5.59007 24.7293 4.81033
1 5.59006 22.8154 5.20307
1 5.59007 24.7293 6.78283
2 5.59007 22.8153 7.17557
1 3.67615 22.8154 7.56832
1 5.59007 22.8154 9.14808
2 3.67615 22.8154 9.54082
1 3.67615 24.7293 9.93356
1 3.67614 22.8154 11.5133
2 3.67614 24.7293 11.9061
1 5.59005 24.7293 12.2988
1 3.67615 24.7293 13.8786
2 5.59005 24.7293 14.2713
1 5.59011 22.8153 14.6641
1 5.59012 24.7293 16.2438
2 5.59016 22.8153 16.6366
1 3.67619 22.8154 17.0293
1 5.58991 22.8155 18.6091
2 3.67609 22.8155 19.0017
1 3.67613 24.7293 19.3945
1 3.67645 22.8153 20.9744
2 3.67615 24.7293 21.367
1 5.59012 24.729 21.7597
1 3.67614 24.7293 23.3395
2 5.58993 24.7293 23.7323
1 5.58995 22.8155 24.1249
1 5.59006 24.7292 25.7048
2 5.59012 22.8153 26.0974
1 3.67616 22.8153 26.4902
1 5.59017 22.8153 28.0699
2 7.50398 -0.151692 0.0798521
1 7.50398 1.76223 0.472592
1 7.50398 -0.151684 2.05235
2 7.50399 1.76222 2.44509
1 9.41791 1.76222 2.83783
1 7.50399 1.76222 4.41759
2 9.41791 1.76223 4.81033
1 9.41791 -0.151695 5.20307
1 9.41791 1.76223 6.78283
2 9.41791 -0.151694 7.17557
1 7.50399 -0.151696 7.56832
1 9.41791 -0.151695 9.14807
2 7.50399 -0.151697 9.54082
1 7.50399 1.76222 9.93356
1 7.50398 -0.151691 11.5133
2 7.50399 1.76222 11.9061
1 9.41791 1.76223 12.2988
1 7.50398 1.76223 13.8786
2 9.41792 1.76225 14.2713
1 9.41787 -0.1517 14.664
1 9.41793 1.76222 16.2439
2 9.4179 -0.151808 16.6365
1 7.50399 -0.151697 17.0293
1 9.41746 -0.151464 18.609
2 7.50393 -0.151797 19.0018
1 7.504 1.76224 19.3945
1 7.50382 -0.151604 20.9742
2 7.50398 1.76221 21.367
1 9.41778 1.76239 21.7599
1 7.50397 1.76224 23.3395
2 9.41789 1.76225 23.7323
1 9.41805 -0.151671 24.1251
1 9.41788 1.76223 25.7048
2 9.41792 -0.15187 26.0974
1 7.50404 -0.151688 26.4902
1 9.41791 -0.151698 28.07
2 7.50399 3.67615 0.0798476
1 7.50398 5.59006 0.472592
1 7.50399 3.67615 2.05235
2 7.50399 5.59007 2.44509
1 9.41791 5.59007 2.83783
1 7.50399 5.59007 4.41759
2 9.41791 5.59007 4.81033
1 9.41791 3.67615 5.20308
1 9.41791 5.59007 6.78283
2 9.41791 3.67615 7.17558
1 7.50399 3.67615 7.56832
1 9.41791 3.67615 9.14808
2 7.50399 3.67615 9.54082
1 7.50399 5.59007 9.93356
1 7.50399 3.67615 11.5133
2 7.50399 5.59007 11.9061
1 9.41791 5.59006 12.2988
1 7.50398 5.59006 13.8786
2 9.41792 5.59005 14.2713
1 9.41791 3.67615 14.664
1 9.41793 5.59007 16.2439
2 9.4179 3.67615 16.6365
1 7.50399 3.67615 17.0293
1 9.41786 3.67615 18.609
2 7.50398 3.67615 19.0018
1 7.504 5.59005 19.3945
1 7.50399 3.67615 20.9743
2 7.50398 5.59008 21.367
1 9.41778 5.5899 21.7599
1 7.50397 5.59005 23.3395
2 9.41789 5.59004 23.7323
1 9.41792 3.67615 24.125
1 9.41788 5.59006 25.7048
2 9.41791 3.67615 26.0975
1 7.50398 3.67615 26.4903
1 9.41791 3.67615 28.07
2 7.50398 7.50399 0.0798521
1 7.50399 9.41792 0.472604
1 7.50398 7.50398 2.05235
2 7.50398 9.41788 2.44511
1 9.41793 9.41792 2.83783
1 7.50399 9.4179 4.4176
2 9.41791 9.41791 4.81033
1 9.41791 7.50399 5.20307
1 9.41791 9.41791 6.78283
2 9.41791 7.50399 7.17557
1 7.50399 7.50399 7.56832
1 9.41791 7.50399 9.14807
2 7.50399 7.50399 9.54082
1 7.50398 9.4179 9.93355
1 7.50398 7.50398 11.5133
2 7.50397 9.41791 11.906
1 9.41791 9.41787 12.2988
1 7.50401 9.41786 13.8785
2 9.41793 9.41796 14.2714
1 9.41787 7.50399 14.664
1 9.418 9.418 16.2439
2 9.4179 7.5041 16.6365
1 7.50399 7.50399 17.0293
1 9.41746 7.50376 18.609
2 7.50393 7.50409 19.0018
1 7.50381 9.41782 19.3947
1 7.50382 7.5039 20.9742
2 7.50364 9.41807 21.3671
1 9.4161 9.41353 21.7611
1 7.50353 9.41817 23.3401
2 9.41773 9.41817 23.7325
1 9.41805 7.50396 24.1251
1 9.41776 9.41828 25.7045
2 9.41792 7.50416 26.0974
1 7.50404 7.50398 26.4902
1 9.41791 7.50399 28.07
2 7.50409 11.3318 0.0797146
1 7.504 13.2458 0.472658
1 7.50401 11.3318 2.05235
2 7.50395 13.2457 2.44513
1 9.41791 13.2458 2.83778
1 7.50401 13.2457 4.41761
2 9.41793 13.2457 4.81031
1 9.41792 11.3318 5.20307
1 9.41792 13.2457 6.78283
2 9.41791 11.3318 7.17558
1 7.50399 11.3318 7.56832
1 9.41791 11.3318 9.14808
2 7.50399 11.3318 9.5408
1 7.50397 13.2458 9.93354
1 7.50397 11.3318 11.5133
2 7.50398 13.2457 11.906
1 9.41788 13.2459 12.2989
1 7.504 13.2458 13.8785
2 9.41813 13.246 14.2718
1 9.41782 11.3319 14.6641
1 9.41722 13.2451 16.2442
2 9.41785 11.3324 16.6364
1 7.50369 11.3318 17.0287
1 9.41691 11.3296 18.6081
2 7.50354 11.3313 19.0017
1 7.50419 13.245 19.3936
1 7.50409 11.3321 20.9745
2 7.50447 13.2462 21.367
1 9.41723 13.2376 21.7635
1 7.50324 13.246 23.3405
2 9.41564 13.2459 23.7345
1 9.41748 11.3315 24.1248
1 9.41586 13.2472 25.7044
2 9.4182 11.3325 26.097
1 7.50403 11.3318 26.49
1 9.41793 11.3319 28.0698
2 7.50427 15.1599 0.0793393
1 7.50403 17.0736 0.472962
1 7.50414 15.1596 2.05225
2 7.50396 17.0736 2.44516
1 9.41796 17.0736 2.83778
1 7.504 17.0736 4.41761
2 9.41792 17.0736 4.81032
1 9.41792 15.1597 5.20306
1 9.41792 17.0736 6.78283
2 9.41791 15.1597 7.17557
1 7.50399 15.1597 7.56832
1 9.41791 15.1597 9.14809
2 7.50398 15.1597 9.54084
1 7.50407 17.0736 9.93364
1 7.50405 15.1597 11.5134
2 7.50412 17.0736 11.9062
1 9.41798 17.0736 12.2996
1 7.504 17.0736 13.8786
2 9.41755 17.0736 14.2725
1 9.41796 15.1596 14.6649
1 9.41636 17.0736 16.2442
2 9.4189 15.1586 16.6393
1 7.50547 15.1576 17.0296
1 9.41807 15.1579 18.615
2 7.5041 15.1574 18.9995
1 7.49141 17.0736 19.3857
1 7.49585 15.159 20.9705
2 7.41863 17.0736 21.3492
1 9.29073 17.0736 21.7972
1 7.47684 17.0736 23.3442
2 9.4 17.0736 23.7399
1 9.41614 15.1598 24.119
1 9.40371 17.0736 25.7169
2 9.41681 15.1607 26.0947
1 7.50334 15.159 26.4899
1 9.41784 15.1597 28.0692
2 7.50427 18.9873 0.0793393
1 7.504 20.9014 0.472658
1 7.50414 18.9875 2.05225
2 7.50395 20.9014 2.44513
1 9.41791 20.9014 2.83778
1 7.50401 20.9014 4.41761
2 9.41793 20.9014 4.81031
1 9.41792 18.9875 5.20306
1 9.41792 20.9014 6.78283
2 9.41791 18.9875 7.17557
1 7.50399 18.9875 7.56832
1 9.41791 18.9875 9.14809
2 7.50398 18.9875 9.54084
1 7.50397 20.9014 9.93354
1 7.50405 18.9875 11.5134
2 7.50398 20.9015 11.906
1 9.41788 20.9013 12.2989
1 7.504 20.9014 13.8785
2 9.41813 20.9012 14.2718
1 9.41796 18.9876 14.6649
1 9.41722 20.9021 16.2442
2 9.4189 18.9886 16.6393
1 7.50547 18.9896 17.0296
1 9.41807 18.9893 18.615
2 7.5041 18.9898 18.9995
1 7.50419 20.9022 19.3936
1 7.49585 18.9882 20.9705
2 7.50447 20.901 21.367
1 9.41723 20.9096 21.7635
1 7.50324 20.9012 23.3405
2 9.41564 20.9013 23.7345
1 9.41614 18.9874 24.119
1 9.41586 20.9 25.7044
2 9.41681 18.9865 26.0947
1 7.50334 18.9882 26.4899
1 9.41784 18.9875 28.0692
2 7.50409 22.8153 0.0797146
1 7.50399 24.7293 0.472604
1 7.50401 22.8154 2.05235
2 7.50398 24.7293 2.44511
1 9.41793 24.7293 2.83783
1 7.50399 24.7293 4.4176
2 9.41791 24.7293 4.81033
1 9.41792 22.8154 5.20307
1 9.41791 24.7293 6.78283
2 9.41791 22.8154 7.17558
1 7.50399 22.8154 7.56832
1 9.41791 22.8154 9.14808
2 7.50399 22.8154 9.5408
1 7.50398 24.7293 9.93355
1 7.50397 22.8154 11.5133
2 7.50397 24.7293 11.906
1 9.41791 24.7293 12.2988
1 7.50401 24.7293 13.8785
2 9.41793 24.7292 14.2714
1 9.41782 22.8152 14.6641
1 9.418 24.7292 16.2439
2 9.41785 22.8148 16.6364
1 7.50369 22.8154 17.0287
1 9.41691 22.8175 18.6081
2 7.50354 22.8159 19.0017
1 7.50381 24.7294 19.3947
1 7.50409 22.8151 20.9745
2 7.50364 24.7291 21.3671
1 9.4161 24.7337 21.7611
1 7.50353 24.729 23.3401
2 9.41773 24.729 23.7325
1 9.41748 22.8157 24.1248
1 9.41776 24.7289 25.7045
2 9.4182 22.8147 26.097
1 7.50403 22.8153 26.49
1 9.41793 22.8152 28.0698
2 11.3318 -0.151681 0.0798735
1 11.3318 1.76223 0.4726
1 11.3318 -0.151691 2.05236
2 11.3318 1.76222 2.44509
1 13.2457 1.76222 2.83783
1 11.3318 1.76222 4.41759
2 13.2457 1.76223 4.81033
1 13.2458 -0.151695 5.20307
1 13.2458 1.76223 6.78283
2 13.2457 -0.151694 7.17557
1 11.3318 -0.151696 7.56832
1 13.2457 -0.151695 9.14807
2 11.3318 -0.151702 9.54083
1 11.3318 1.76222 9.93356
1 11.3318 -0.151693 11.5133
2 11.3318 1.76222 11.9061
1 13.2457 1.76223 12.2988
1 11.3318 1.76225 13.8785
2 13.2457 1.76225 14.2713
1 13.2458 -0.1517 14.664
1 13.2457 1.76222 16.2439
2 13.2458 -0.151808 16.6365
1 11.3318 -0.151162 17.0286
1 13.2462 -0.151464 18.609
2 11.3318 -0.149133 19.0002
1 11.3318 1.763 19.3937
1 11.3318 -0.148719 20.9733
2 11.3318 1.76298 21.3668
1 13.2459 1.76239 21.7599
1 11.3318 1.7622 23.3395
2 13.2458 1.76225 23.7323
1 13.2456 -0.151671 24.1251
1 13.2458 1.76223 25.7048
2 13.2457 -0.15187 26.0974
1 11.3318 -0.151742 26.4903
1 13.2457 -0.151698 28.07
2 11.3318 3.67615 0.079846
1 11.3318 5.59007 0.4726
1 11.3318 3.67615 2.05234
2 11.3318 5.59007 2.44509
1 13.2457 5.59007 2.83783
1 11.3318 5.59007 4.41759
2 13.2457 5.59007 4.81033
1 13.2458 3.67615 5.20308
1 13.2458 5.59007 6.78283
2 13.2457 3.67615 7.17558
1 11.3318 3.67615 7.56832
1 13.2458 3.67615 9.14808
2 11.3318 3.67615 9.54082
1 11.3318 5.59007 9.93356
1 11.3318 3.67615 11.5133
2 11.3318 5.59008 11.9061
1 13.2457 5.59006 12.2988
1 11.3318 5.59004 13.8785
2 13.2457 5.59005 14.2713
1 13.2457 3.67615 14.664
1 13.2457 5.59007 16.2439
2 13.2458 3.67615 16.6365
1 11.3318 3.67615 17.0292
1 13.2458 3.67615 18.609
2 11.3318 3.67615 19.0016
1 11.3318 5.58929 19.3937
1 11.3318 3.67615 20.9742
2 11.3318 5.58932 21.3668
1 13.2459 5.5899 21.7599
1 11.3318 5.59009 23.3395
2 13.2458 5.59004 23.7323
1 13.2457 3.67615 24.125
1 13.2458 5.59006 25.7048
2 13.2457 3.67615 26.0975
1 11.3318 3.67615 26.4902
1 13.2458 3.67615 28.07
2 11.3318 7.50397 0.0798735
1 11.3318 9.41794 0.472619
1 11.3318 7.50398 2.05236
2 11.3318 9.41797 2.44509
1 13.2457 9.41792 2.83783
1 11.3318 9.41792 4.41758
2 13.2458 9.41791 4.81033
1 13.2458 7.50399 5.20307
1 13.2457 9.41791 6.78283
2 13.2457 7.50399 7.17557
1 11.3318 7.50399 7.56832
1 13.2457 7.50399 9.14807
2 11.3318 7.504 9.54083
1 11.3318 9.41791 9.93356
1 11.3318 7.50399 11.5133
2 11.3318 9.41791 11.906
1 13.2457 9.41787 12.2988
1 11.3318 9.41782 13.8785
2 13.2457 9.41796 14.2714
1 13.2458 7.50399 14.664
1 13.2457 9.418 16.2439
2 13.2458 7.5041 16.6365
1 11.3318 7.50346 17.0286
1 13.2462 7.50376 18.609
2 11.3318 7.50143 19.0002
1 11.3318 9.41067 19.3857
1 11.3318 7.50101 20.9733
2 11.3318 9.40268 21.3674
1 13.2476 9.41353 21.7611
1 11.3318 9.4156 23.3407
2 13.2459 9.41817 23.7325
1 13.2456 7.50396 24.1251
1 13.2459 9.41828 25.7045
2 13.2457 7.50416 26.0974
1 11.3318 7.50404 26.4903
1 13.2457 7.50399 28.07
2 11.3318 11.3319 0.0796943
1 11.3318 13.2458 0.472591
1 11.3318 11.3319 2.05223
2 11.3318 13.2459 2.44498
1 13.2457 13.2458 2.83778
1 11.3318 13.2458 4.41751
2 13.2457 13.2457 4.81031
1 13.2457 11.3318 5.20307
1 13.2457 13.2457 6.78283
2 13.2458 11.3318 7.17558
1 11.3318 11.3318 7.56831
1 13.2457 11.3318 9.14808
2 11.3318 11.3318 9.54081
1 11.3318 13.2458 9.93354
1 11.3318 11.3318 11.5133
2 11.3318 13.2457 11.906
1 13.2458 13.2459 12.2989
1 11.3318 13.2458 13.8782
2 13.2455 13.246 14.2718
1 13.2458 11.3319 14.6641
1 13.2464 13.2451 16.2442
2 13.2458 11.3324 16.6364
1 11.3318 11.3298 17.0274
1 13.2467 11.3296 18.6081
2 11.3318 11.3234 18.9974
1 11.3318 13.2186 19.3899
1 11.3318 11.3 20.9729
2 11.3318 13.1604 21.3849
1 13.2464 13.2376 21.7635
1 11.3318 13.2332 23.3483
2 13.248 13.2459 23.7345
1 13.2462 11.3315 24.1248
1 13.2478 13.2472 25.7044
2 13.2455 11.3325 26.097
1 11.3318 11.3323 26.4902
1 13.2457 11.3319 28.0698
2 11.3318 15.1593 0.0786753
1 11.3318 17.0736 0.471996
1 11.3318 15.1597 2.05155
2 11.3318 17.0736 2.44478
1 13.2457 17.0736 2.83778
1 11.3318 17.0736 4.41743
2 13.2457 17.0736 4.81032
1 13.2457 15.1597 5.20306
1 13.2457 17.0736 6.78283
2 13.2458 15.1597 7.17557
1 11.3318 15.1597 7.56832
1 13.2457 15.1597 9.14809
2 11.3318 15.1597 9.54083
1 11.3318 17.0736 9.93372
1 11.3318 15.1597 11.5134
2 11.3318 17.0736 11.9064
1 13.2457 17.0736 12.2996
1 11.3318 17.0736 13.8792
2 13.2461 17.0736 14.2725
1 13.2457 15.1596 14.6649
1 13.2473 17.0736 16.2442
2 13.2448 15.1586 16.6393
1 11.3318 15.1455 17.0171
1 13.2456 15.1579 18.615
2 11.3318 15.1418 18.9941
1 11.3318 17.0736 19.0993
1 11.3318 15.0325 20.9369
1 13.3729 17.0736 21.7972
1 11.3318 17.0736 23.6347
2 13.2637 17.0736 23.7399
1 13.2475 15.1598 24.119
1 13.26 17.0736 25.7169
2 13.2469 15.1607 26.0947
1 11.3318 15.1581 26.4898
1 13.2458 15.1597 28.0692
2 11.3318 18.9879 0.0786753
1 11.3318 20.9014 0.472591
1 11.3318 18.9874 2.05155
2 11.3318 20.9013 2.44498
1 13.2457 20.9014 2.83778
1 11.3318 20.9013 4.41751
2 13.2457 20.9014 4.81031
1 13.2457 18.9875 5.20306
1 13.2457 20.9014 6.78283
2 13.2458 18.9875 7.17557
1 11.3318 18.9875 7.56832
1 13.2457 18.9875 9.14809
2 11.3318 18.9875 9.54083
1 11.3318 20.9014 9.93354
1 11.3318 18.9875 11.5134
2 11.3318 20.9015 11.906
1 13.2458 20.9013 12.2989
1 11.3318 20.9014 13.8782
2 13.2455 20.9012 14.2718
1 13.2457 18.9876 14.6649
1 13.2464 20.9021 16.2442
2 13.2448 18.9886 16.6393
1 11.3318 19.0017 17.0171
1 13.2456 18.9893 18.615
2 11.3318 19.0054 18.9941
1 11.3318 20.9286 19.3899
1 11.3318 19.1147 20.9369
2 11.3318 20.9868 21.3849
1 13.2464 20.9096 21.7635
1 11.3318 20.914 23.3483
2 13.248 20.9013 23.7345
1 13.2475 18.9874 24.119
1 13.2478 20.9 25.7044
2 13.2469 18.9865 26.0947
1 11.3318 18.9891 26.4898
1 13.2458 18.9875 28.0692
2 11.3318 22.8153 0.0796943
1 11.3318 24.7292 0.472619
1 11.3318 22.8153 2.05223
2 11.3318 24.7292 2.44509
1 13.2457 24.7293 2.83783
1 11.3318 24.7293 4.41758
2 13.2458 24.7293 4.81033
1 13.2457 22.8154 5.20307
1 13.2457 24.7293 6.78283
2 13.2458 22.8154 7.17558
1 11.3318 22.8154 7.56831
1 13.2457 22.8154 9.14808
2 11.3318 22.8154 9.54081
1 11.3318 24.7293 9.93356
1 11.3318 22.8154 11.5133
2 11.3318 24.7293 11.906
1 13.2457 24.7293 12.2988
1 11.3318 24.7294 13.8785
2 13.2457 24.7292 14.2714
1 13.2458 22.8152 14.6641
1 13.2457 24.7292 16.2439
2 13.2458 22.8148 16.6364
1 11.3318 22.8174 17.0274
1 13.2467 22.8175 18.6081
2 11.3318 22.8237 18.9974
1 11.3318 24.7365 19.3857
1 11.3318 22.8472 20.9729
2 11.3318 24.7445 21.3674
1 13.2476 24.7337 21.7611
1 11.3318 24.7316 23.3407
2 13.2459 24.729 23.7325
1 13.2462 22.8157 24.1248
1 13.2459 24.7289 25.7045
2 13.2455 22.8147 26.097
1 11.3318 22.8149 26.4902
1 13.2457 22.8152 28.0698
2 15.1597 -0.151692 0.0798521
1 15.1597 1.76223 0.472592
1 15.1597 -0.151684 2.05235
2 15.1597 1.76222 2.44509
1 17.0736 1.76223 2.83783
1 15.1597 1.76222 4.41759
2 17.0736 1.76223 4.81033
1 17.0736 -0.151695 5.20307
1 17.0736 1.76223 6.78283
2 17.0736 -0.151695 7.17557
1 15.1597 -0.151696 7.56832
1 17.0736 -0.151696 9.14808
2 15.1597 -0.151697 9.54082
1 15.1597 1.76222 9.93356
1 15.1597 -0.151691 11.5133
2 15.1597 1.76222 11.9061
1 17.0736 1.76223 12.2988
1 15.1597 1.76223 13.8786
2 17.0736 1.76222 14.2713
1 17.0736 -0.151695 14.6641
1 17.0736 1.76222 16.2438
2 17.0736 -0.151693 16.6365
1 15.1597 -0.151697 17.0293
1 17.0736 -0.151718 18.6091
2 15.1597 -0.151797 19.0018
1 15.1597 1.76224 19.3945
1 15.1598 -0.151604 20.9742
2 15.1597 1.76221 21.367
1 17.0736 1.76221 21.7598
1 15.1597 1.76224 23.3395
2 17.0736 1.76223 23.7323
1 17.0736 -0.15167 24.125
1 17.0736 1.76223 25.7048
2 17.0736 -0.151713 26.0975
1 15.1596 -0.151688 26.4902
1 17.0736 -0.151701 28.07
2 15.1597 3.67615 0.0798476
1 15.1597 5.59006 0.472592
1 15.1597 3.67615 2.05235
2 15.1597 5.59007 2.44509
1 17.0736 5.59007 2.83783
1 15.1597 5.59007 4.41759
2 17.0736 5.59007 4.81033
1 17.0736 3.67615 5.20308
1 17.0736 5.59007 6.78283
2 17.0736 3.67615 7.17558
1 15.1597 3.67615 7.56832
1 17.0736 3.67615 9.14807
2 15.1597 3.67615 9.54082
1 15.1597 5.59007 9.93356
1 15.1597 3.67615 11.5133
2 15.1597 5.59007 11.9061
1 17.0736 5.59007 12.2988
1 15.1597 5.59006 13.8786
2 17.0736 5.59007 14.2713
1 17.0736 3.67615 14.664
1 17.0736 5.59007 16.2438
2 17.0736 3.67615 16.6365
1 15.1597 3.67615 17.0293
1 17.0736 3.67615 18.609
2 15.1597 3.67615 19.0018
1 15.1597 5.59005 19.3945
1 15.1597 3.67615 20.9743
2 15.1597 5.59008 21.367
1 17.0736 5.59009 21.7598
1 15.1597 5.59005 23.3395
2 17.0736 5.59006 23.7323
1 17.0736 3.67615 24.125
1 17.0736 5.59006 25.7048
2 17.0736 3.67615 26.0975
1 15.1597 3.67615 26.4903
1 17.0736 3.67615 28.07
2 15.1597 7.50399 0.0798521
1 15.1597 9.41792 0.472604
1 15.1597 7.50398 2.05235
2 15.1597 9.41788 2.44511
1 17.0736 9.4179 2.83784
1 15.1597 9.4179 4.4176
2 17.0736 9.41791 4.81033
1 17.0736 7.50399 5.20307
1 17.0736 9.41791 6.78283
2 17.0736 7.50399 7.17557
1 15.1597 7.50399 7.56832
1 17.0736 7.50399 9.14808
2 15.1597 7.50399 9.54082
1 15.1597 9.4179 9.93355
1 15.1597 7.50398 11.5133
2 15.1597 9.41791 11.906
1 17.0736 9.41791 12.2988
1 15.1596 9.41786 13.8785
2 17.0736 9.41792 14.2713
1 17.0736 7.50399 14.6641
1 17.0735 9.41792 16.2438
2 17.0736 7.50399 16.6365
1 15.1597 7.50399 17.0293
1 17.0736 7.50401 18.6091
2 15.1597 7.50409 19.0018
1 15.1598 9.41782 19.3947
1 15.1598 7.5039 20.9742
2 15.16 9.41807 21.3671
1 17.0735 9.41822 21.7597
1 15.1601 9.41817 23.3401
2 17.0737 9.41785 23.7323
1 17.0736 7.50396 24.125
1 17.0736 9.41795 25.7048
2 17.0736 7.50401 26.0975
1 15.1596 7.50398 26.4902
1 17.0736 7.50399 28.07
2 15.1596 11.3318 0.0797146
1 15.1597 13.2458 0.472658
1 15.1596 11.3318 2.05235
2 15.1597 13.2457 2.44513
1 17.0736 13.2457 2.83786
1 15.1597 13.2457 4.41761
2 17.0736 13.2457 4.81035
1 17.0736 11.3318 5.20307
1 17.0736 13.2457 6.78283
2 17.0736 11.3318 7.17557
1 15.1597 11.3318 7.56832
1 17.0736 11.3318 9.14808
2 15.1597 11.3318 9.5408
1 15.1597 13.2458 9.93354
1 15.1597 11.3318 11.5133
2 15.1597 13.2457 11.906
1 17.0736 13.2458 12.2988
1 15.1597 13.2458 13.8785
2 17.0736 13.2459 14.2714
1 17.0735 11.3319 14.6641
1 17.0736 13.2458 16.244
2 17.0735 11.3319 16.6366
1 15.16 11.3318 17.0287
1 17.0738 11.3317 18.6091
2 15.1601 11.3313 19.0017
1 15.1595 13.245 19.3936
1 15.1596 11.3321 20.9745
2 15.1592 13.2462 21.367