1752
Atoms. Timestep: 406
2 -0.195814 -0.102564 0.0549283
1 -0.19222 1.77188 0.461336
1 -0.187812 -0.147216 2.05025
2 -0.194345 1.75367 2.44121
1 1.7259 1.74147 2.8311
1 -0.194731 1.73487 4.41282
2 1.7254 1.72831 4.8033
1 1.73504 -0.186256 5.20173
1 1.72234 1.72727 6.77741
2 1.72314 -0.193271 7.17168
1 -0.196173 -0.194075 7.56374
1 1.72176 -0.198064 9.14374
2 -0.197101 -0.198746 9.53601
1 -0.194119 1.72277 9.92772
1 -0.193712 -0.1993 11.5075
2 -0.187182 1.72257 11.8988
1 1.72519 1.72357 12.2943
1 -0.187729 1.7235 13.8753
2 1.726 1.72578 14.2711
1 1.72448 -0.19469 14.667
1 1.72137 1.7254 16.2452
2 1.72033 -0.195892 16.6405
1 -0.200383 -0.199868 17.0336
1 1.71886 -0.195359 18.6136
2 -0.206105 -0.199208 19.006
1 -0.235457 1.7228 19.3751
1 -0.209927 -0.196191 20.9806
2 -0.228545 1.72332 21.3437
1 1.72263 1.72313 21.4151
1 -0.339835 1.72243 23.2796
1 1.72305 -0.339006 24.2035
1 1.7248 1.72616 26.0692
2 1.72686 -0.226317 26.1382
1 -0.195379 -0.195221 26.4993
1 1.72384 -0.216626 28.1061
2 -0.198974 3.67607 0.0667634
1 -0.204507 5.58026 0.462788
1 -0.198208 3.66589 2.04946
2 -0.197226 5.57663 2.4375
1 1.72424 5.56957 2.82915
1 -0.197274 5.56786 4.40852
2 1.72309 5.56427 4.80147
1 1.72392 3.64629 5.19686
1 1.72234 5.5643 6.77466
2 1.72248 3.64519 7.1693
1 -0.197138 3.64537 7.5628
1 1.72277 3.64438 9.14163
2 -0.196498 3.64386 9.53546
1 -0.19763 5.56462 9.93002
1 -0.193304 3.64464 11.5072
2 -0.197122 5.56432 11.903
1 1.72218 5.56396 12.2974
1 -0.196656 5.56526 13.876
2 1.72228 5.56452 14.2711
1 1.72264 3.6458 14.6674
1 1.72118 5.56507 16.2444
2 1.72159 3.6455 16.641
1 -0.197849 3.6471 17.0337
1 1.72176 3.63984 18.6144
2 -0.203251 3.64459 19.0054
1 -0.19776 5.56362 19.401
1 -0.208871 3.64337 20.9796
2 -0.200679 5.5645 21.3728
1 1.7231 5.57582 21.7667
1 -0.19705 5.57842 23.3454
2 1.72304 5.65761 23.7342
1 1.72297 3.78617 24.2042
1 1.72339 5.60975 25.7328
2 1.72361 3.67592 26.1404
1 -0.197354 3.66013 26.5042
1 1.7253 3.69271 28.1081
2 -0.198672 7.49115 0.0672421
1 -0.19844 9.40522 0.459805
1 -0.197543 7.49025 2.04327
2 -0.198089 9.40461 2.4344
1 1.72247 9.4049 2.82747
1 -0.198119 9.40442 4.40665
2 1.72167 9.4024 4.80022
1 1.72153 7.48319 5.19561
1 1.72106 9.40233 6.77338
2 1.72191 7.48337 7.16865
1 -0.197928 7.4844 7.56331
1 1.72184 7.48441 9.14176
2 -0.198011 7.48455 9.53596
1 -0.19825 9.40475 9.93022
1 -0.197569 7.48444 11.5085
2 -0.197495 9.40486 11.9027
1 1.72222 9.40414 12.2969
1 -0.196568 9.40294 13.875
2 1.72271 9.40318 14.2697
1 1.7221 7.48374 14.6652
1 1.72646 9.40236 16.2421
2 1.72314 7.48381 16.6388
1 -0.195808 7.48283 17.0339
1 1.72366 7.48174 18.6122
2 -0.195794 7.48249 19.0067
1 -0.185688 9.40055 19.4013
1 -0.198951 7.48436 20.9802
2 -0.193819 9.4042 21.3741
1 1.72578 9.4075 21.7696
1 -0.196533 9.41432 23.3469
2 1.72526 9.4289 23.7439
1 1.72344 7.52817 24.1419
1 1.72295 9.42349 25.7277
2 1.72294 7.51153 26.1209
1 -0.199776 7.49839 26.509
1 1.72379 7.4951 28.0905
2 -0.197161 11.3191 0.0653263
1 -0.197935 13.2309 0.460247
1 -0.197305 11.3187 2.04139
2 -0.199767 13.2311 2.43695
1 1.72089 13.2405 2.82926
1 -0.199463 13.2399 4.40922
2 1.72167 13.2425 4.80163
1 1.72173 11.3218 5.19561
1 1.72346 13.2409 6.77458
2 1.72161 11.3215 7.16897
1 -0.198269 11.3238 7.56329
1 1.72042 11.3241 9.14232
2 -0.198853 11.3252 9.5361
1 -0.198542 13.2456 9.93013
1 -0.197843 11.3252 11.5085
2 -0.19823 13.2457 11.9021
1 1.72111 13.246 12.2962
1 -0.19781 13.2463 13.874
2 1.72072 13.2445 14.2689
1 1.72567 11.3233 14.6616
1 1.71497 13.2434 16.2403
2 1.7324 11.3233 16.6333
1 -0.17835 11.323 17.0201
1 1.7323 11.3223 18.6092
2 -0.171041 11.3229 19.0038
1 -0.182453 13.2468 19.3971
1 -0.178688 11.3227 20.9765
2 -0.169917 13.246 21.3657
1 1.74176 13.2453 21.7598
1 -0.154038 13.2466 23.344
2 1.74786 13.2497 23.7423
1 1.73433 11.3331 24.1398
1 1.72909 13.2491 25.7185
2 1.72485 11.3358 26.1153
1 -0.196511 11.327 26.5061
1 1.72443 11.3262 28.0864
2 -0.199052 15.1355 0.0628465
1 -0.208118 17.0381 0.456341
1 -0.210522 15.141 2.04488
2 -0.222578 17.0572 2.43196
1 1.68322 17.0698 2.8138
1 -0.237585 17.0763 4.40774
2 1.63469 17.0832 4.81112
1 1.71023 15.1637 5.1985
1 1.71152 17.0828 6.77952
2 1.72098 15.1608 7.17107
1 -0.199556 15.1623 7.56421
1 1.72157 15.1651 9.14257
2 -0.198424 15.1662 9.53653
1 -0.197654 17.0862 9.93102
1 -0.198821 15.1662 11.5087
2 -0.199456 17.0867 11.9028
1 1.7195 17.0858 12.2956
1 -0.199262 17.087 13.8752
2 1.72008 17.0848 14.2691
1 1.71561 15.1648 14.6643
1 1.71002 17.0868 16.242
2 1.69779 15.1648 16.639
1 -0.20584 15.1674 17.0334
1 1.70474 15.1699 18.6226
2 -0.205632 15.1695 19.0097
1 -0.202124 17.0904 19.4024
1 -0.187582 15.1698 20.9798
2 -0.195287 17.0881 21.3754
1 1.7236 17.0888 21.7707
1 -0.195518 17.0868 23.3479
2 1.72442 17.0827 23.7431
1 1.73379 15.1676 24.1369
1 1.72485 17.0806 25.7186
2 1.72549 15.1651 26.1106
1 -0.195676 15.1614 26.5015
1 1.72097 15.1457 28.0811
2 -0.197849 18.9109 0.0532955
1 -0.179778 20.7851 0.519885
1 -0.196244 18.9637 2.04802
2 -0.107123 20.898 2.45304
1 1.76472 20.9121 2.83325
1 -0.154703 20.8934 4.44938
2 1.74993 20.9234 4.81364
1 1.72937 18.9986 5.2041
1 1.73466 20.9292 6.78355
2 1.72375 19.0073 7.17351
1 -0.194422 18.9999 7.56679
1 1.72265 19.0072 9.14463
2 -0.197185 19.007 9.53786
1 -0.197878 20.9277 9.93095
1 -0.198558 19.0073 11.5094
2 -0.19876 20.9278 11.9033
1 1.72069 20.9277 12.2978
1 -0.200088 20.9261 13.8762
2 1.72066 20.9251 14.2693
1 1.7229 19.0049 14.6649
1 1.70642 20.9284 16.242
2 1.71807 19.0064 16.6383
1 -0.20207 19.0078 17.0335
1 1.71657 19.0098 18.6114
2 -0.202153 19.0082 19.0073
1 -0.212617 20.9256 19.4056
1 -0.198426 19.006 20.9811
2 -0.20062 20.9249 21.3775
1 1.71829 20.9122 21.7696
1 -0.200226 20.9201 23.3495
2 1.72785 20.9001 23.7417
1 1.72391 18.996 24.1382
1 1.7328 20.908 25.726
2 1.72654 18.9947 26.1118
1 -0.199105 18.9902 26.5009
1 1.72101 18.9923 28.0807
1 -0.200038 24.9107 0.518663
1 -0.162329 22.8464 2.38338
2 -0.175622 24.8004 2.45269
1 1.72955 24.7841 2.81528
1 -0.157299 24.8061 4.43111
2 1.73567 24.7776 4.80737
1 1.73727 22.8501 5.20256
1 1.72638 24.774 6.78005
2 1.72526 22.852 7.17267
1 -0.191895 22.8545 7.56542
1 1.72118 22.8495 9.14659
2 -0.198033 22.8483 9.53694
1 -0.198544 24.7686 9.93063
1 -0.197967 22.8481 11.5091
2 -0.197659 24.7682 11.9029
1 1.72164 24.7691 12.2975
1 -0.198572 24.7693 13.8759
2 1.72119 24.7724 14.2698
1 1.71019 22.8486 14.6636
1 1.70708 24.7689 16.2429
2 1.62847 22.8486 16.6313
1 -0.242405 22.8482 17.0385
1 1.67675 22.8486 18.6304
2 -0.225679 22.8479 19.0176
1 -0.21293 24.7704 19.4056
1 -0.209074 22.8467 20.9877
2 -0.203792 24.7694 21.3761
1 1.7181 24.7671 21.768
1 -0.198742 24.7513 23.348
2 1.72755 24.6772 23.7329
1 1.7596 22.8035 24.1156
1 1.73506 24.7245 25.7325
2 1.75244 22.8211 26.0906
1 -0.198972 22.8339 26.1516
1 1.86685 22.837 28.0245
2 3.64606 -0.197497 0.0631414
1 3.64201 1.72908 0.455911
1 3.63602 -0.187698 2.03292
2 3.64244 1.72935 2.43068
1 5.56058 1.72849 2.82743
1 3.64281 1.73048 4.40542
2 5.56039 1.72945 4.80191
1 5.54197 -0.181596 5.20326
1 5.56348 1.73091 6.77895
2 5.56002 -0.183132 7.17607
1 3.64077 -0.189296 7.56764
1 5.56225 -0.194188 9.14695
2 3.64182 -0.197238 9.53742
1 3.64199 1.7244 9.9279
1 3.63467 -0.19304 11.5074
2 3.64091 1.72528 11.8999
1 5.55831 1.73194 12.2875
1 3.64014 1.73724 13.8731
2 5.55886 1.75031 14.2602
1 5.56103 -0.152503 14.6482
1 5.56275 1.76707 16.2397
2 5.56332 -0.104033 16.6467
1 3.64294 -0.185287 17.0349
1 5.56811 -0.193477 18.6128
2 3.64462 -0.198187 19.0066
1 3.67798 1.72474 19.3749
1 3.65396 -0.196944 20.9793
2 3.67392 1.72331 21.3437
1 5.60909 1.7228 21.7509
1 3.78579 1.72328 23.2796
2 5.65756 1.72362 23.7496
1 5.57953 -0.195961 24.1366
1 5.57626 1.7234 25.717
2 5.56706 -0.200809 26.1093
1 3.64686 -0.208122 26.5024
1 5.56477 -0.192447 28.0812
2 3.64639 3.65238 0.0652941
1 3.65289 5.57089 0.461109
1 3.64677 3.6478 2.03744
2 3.64364 5.5658 2.43329
1 5.56335 5.56475 2.82805
1 3.64292 5.56217 4.40628
2 5.56315 5.55953 4.80095
1 5.56322 3.64449 5.19526
1 5.56317 5.55971 6.77683
2 5.56327 3.64488 7.17011
1 3.6424 3.64439 7.56315
1 5.56273 3.64468 9.1421
2 3.6428 3.64399 9.53526
1 3.64204 5.56412 9.92965
1 3.64129 3.64539 11.5072
2 3.64192 5.56433 11.9022
1 5.56203 5.56776 12.2945
1 3.64113 5.56829 13.8745
2 5.5622 5.57441 14.2663
1 5.56109 3.66306 14.6547
1 5.56188 5.57311 16.2425
2 5.56337 3.66842 16.638
1 3.641 3.65694 17.0347
1 5.56804 3.65633 18.6113
2 3.64746 3.6465 19.0058
1 3.64316 5.56502 19.4017
1 3.65451 3.64406 20.9801
2 3.64694 5.56529 21.3733
1 5.56748 5.56336 21.7696
1 3.64364 5.57916 23.3459
2 5.5661 5.56623 23.7424
1 5.579 3.64388 24.1383
1 5.56296 5.5677 25.7153
2 5.565 3.64684 26.111
1 3.64459 3.65504 26.5042
1 5.56495 3.64615 28.083
2 3.64566 7.48714 0.0664534
1 3.64542 9.40553 0.459762
1 3.64327 7.48542 2.03934
2 3.64247 9.40367 2.43243
1 5.56361 9.39957 2.82648
1 3.64118 9.39339 4.40453
2 5.56359 9.37917 4.80096
1 5.5634 7.47382 5.19631
1 5.56355 9.38475 6.78458
2 5.5634 7.47282 7.17254
1 3.64163 7.47959 7.56444
1 5.5632 7.48069 9.14389
2 3.64231 7.48382 9.53651
1 3.64123 9.40313 9.9311
1 3.64162 7.48403 11.5089
2 3.64201 9.40409 11.9033
1 5.56136 9.40314 12.296
1 3.64212 9.40279 13.8755
2 5.56255 9.40113 14.2689
1 5.56156 7.48665 14.6631
1 5.56183 9.40104 16.2443
2 5.56222 7.48616 16.6394
1 3.64227 7.48455 17.0342
1 5.56243 7.48486 18.6131
2 3.64276 7.48421 19.007
1 3.64351 9.40331 19.4009
1 3.64557 7.48542 20.9801
2 3.64549 9.40445 21.3742
1 5.56544 9.40337 21.7689
1 3.6473 9.41409 23.3468
2 5.5656 9.40662 23.7423
1 5.56579 7.48691 24.1373
1 5.56532 9.4068 25.7155
2 5.56438 7.48743 26.1106
1 3.64605 7.49853 26.5087
1 5.56569 7.4859 28.0838
2 3.64487 11.3242 0.0654657
1 3.64541 13.2428 0.459042
1 3.64213 11.3227 2.03837
2 3.64039 13.2425 2.4312
1 5.56391 13.2323 2.82506
1 3.64394 13.2301 4.40443
2 5.56398 13.1516 4.79259
1 5.56365 11.2806 5.19969
1 5.56368 13.1999 6.79148
2 5.56353 11.2973 7.17853
1 3.64037 11.3105 7.56692
1 5.56313 11.3155 9.14787
2 3.64108 11.3226 9.5379
1 3.63488 13.2402 9.93178
1 3.64163 11.3236 11.5103
2 3.64143 13.2446 11.9026
1 5.56245 13.2412 12.2943
1 3.63997 13.2394 13.8741
2 5.56197 13.2308 14.2647
1 5.56406 11.3164 14.6618
1 5.54852 13.2353 16.2403
2 5.56151 11.3183 16.6374
1 3.64497 11.3216 17.0302
1 5.56023 11.3243 18.6128
2 3.64473 11.3237 19.0064
1 3.6333 13.2433 19.4035
1 3.64849 11.3223 20.9792
2 3.65283 13.2438 21.3729
1 5.56381 13.2378 21.7691
1 3.65366 13.247 23.3488
2 5.56803 13.2461 23.7435
1 5.56696 11.3257 24.1382
1 5.56526 13.246 25.7164
2 5.56478 11.3262 26.1107
1 3.64595 11.3292 26.5071
1 5.56499 11.3247 28.0839
2 3.63996 15.1608 0.06231
1 3.60901 17.0813 0.431816
1 3.63404 15.1622 2.03671
2 3.61499 17.0814 2.40149
1 5.56475 17.0819 2.47358
1 3.50659 17.0835 4.33865
1 5.56422 15.023 5.26341
1 5.5635 17.0852 7.12835
2 5.56373 15.1347 7.19963
1 3.64292 15.154 7.56374
1 5.56329 15.1287 9.16827
2 3.64124 15.1603 9.53732
1 3.64578 17.0853 9.92731
1 3.63873 15.1643 11.5085
2 3.6401 17.0843 11.8995
1 5.56244 17.0779 12.2891
1 3.63845 17.0745 13.871
2 5.56183 17.0626 14.2582
1 5.55097 15.1466 14.6518
1 5.54897 17.0428 16.2376
2 5.46976 15.1406 16.6299
1 3.59797 15.1562 17.0388
1 5.51853 15.1622 18.6308
2 3.61584 15.166 19.0174
1 3.62682 17.0882 19.4056
1 3.63902 15.1673 20.9867
2 3.64213 17.0886 21.3771
1 5.55952 17.095 21.7716
1 3.64442 17.0864 23.3497
2 5.56419 17.0858 23.7432
1 5.56565 15.1667 24.138
1 5.56513 17.0856 25.7162
2 5.5647 15.1661 26.1113
1 3.64568 15.1638 26.504
1 5.5648 15.1675 28.0841
2 3.64292 19.0038 0.0617814
1 3.66574 20.9242 0.458869
1 3.64233 18.9996 2.03524
2 3.66508 20.9227 2.43271
1 5.57249 20.9344 2.82719
1 3.66186 20.9376 4.41565
2 5.57199 21.0196 4.79896
1 5.56949 19.1463 5.2661
1 5.56691 20.97 6.79675
2 5.5641 19.0358 7.20119
1 3.6444 19.016 7.5655
1 5.56333 19.0434 9.1689
2 3.64151 19.0122 9.53817
1 3.63264 20.9323 9.93236
1 3.63206 19.0027 11.5078
2 3.63984 20.9231 11.902
1 5.56145 20.8925 12.2706
1 3.64199 20.9175 13.8756
2 5.56261 20.9001 14.2394
1 5.56387 18.9655 14.6475
1 5.56093 20.7879 16.1759
2 5.56146 18.9156 16.6467
1 3.64004 18.9935 17.0355
1 5.55978 18.9946 18.6146
2 3.63618 19.0066 19.0086
1 3.6308 20.9276 19.4013
1 3.64296 19.0076 20.9804
2 3.63925 20.9251 21.3755
1 5.56596 20.9312 21.7653
1 3.65027 20.9055 23.3448
2 5.56753 20.9232 23.7382
1 5.56661 19.0037 24.1365
1 5.579 20.9231 25.7097
2 5.56721 19.0056 26.1098
1 3.64871 19.0056 26.5036
1 5.56787 19.0003 28.0833
2 3.73935 22.8454 0.0710984
1 3.66215 24.7662 0.455444
1 3.65482 22.8468 2.0358
2 3.62313 24.7754 2.42573
1 5.51264 24.7784 2.82044
1 3.62595 24.7827 4.41342
2 5.51978 24.7955 4.8134
1 5.54519 22.8893 5.20853
1 5.54961 24.7897 6.79456
2 5.5605 22.8742 7.18378
1 3.64082 22.8614 7.57179
1 5.56278 22.8577 9.15335
2 3.641 22.8508 9.54137
1 3.63848 24.7708 9.93137
1 3.64513 22.8496 11.5128
2 3.64068 24.7746 11.9021
1 5.56208 24.8059 12.2709
1 3.64197 24.7806 13.8758
2 5.56224 24.8008 14.2397
1 5.56101 22.8506 14.3124
1 5.5628 24.9119 16.1757
1 3.49995 22.8485 17.1019
1 5.56291 22.8482 18.9671
2 3.61181 22.848 19.0378
1 3.63205 24.7684 19.4014
1 3.60829 22.8467 21.0065
2 3.64189 24.7697 21.3741
1 5.56866 24.7668 21.7659
1 3.64786 24.7639 23.3443
2 5.56835 24.7686 23.7384
1 5.57436 22.8454 24.128
1 5.57669 24.7676 25.7098
2 5.59068 22.8451 26.0978
1 3.68978 22.8338 26.4887
1 5.60843 22.8441 28.0761
2 7.48369 -0.190841 0.0601373
1 7.48512 1.72939 0.457593
1 7.45923 -0.192967 2.03113
2 7.47943 1.72671 2.43157
1 9.40087 1.73959 2.82778
1 7.47949 1.72495 4.40536
2 9.39984 1.72759 4.80141
1 9.38639 -0.192951 5.19772
1 9.40347 1.72876 6.77457
2 9.39743 -0.190977 7.17153
1 7.47889 -0.186349 7.56524
1 9.40244 -0.196066 9.14146
2 7.48361 -0.197658 9.53566
1 7.48073 1.7243 9.9255
1 7.48677 -0.19356 11.5054
2 7.47403 1.72512 11.8963
1 9.38641 1.72375 12.285
1 7.47533 1.73716 13.8702
2 9.38001 1.72573 14.2682
1 9.39297 -0.191563 14.6641
1 9.40141 1.72542 16.2455
2 9.40594 -0.191824 16.6392
1 7.48399 -0.181643 17.0347
1 9.40936 -0.19905 18.6122
2 7.48951 -0.197976 19.007
1 7.49514 1.72461 19.3949
1 7.49938 -0.199077 20.977
2 7.51206 1.72332 21.3645
1 9.42488 1.72326 21.7578
1 7.52837 1.72361 23.3423
2 9.42998 1.72369 23.7405
1 9.41321 -0.198403 24.1362
1 9.40235 1.72857 25.7131
2 9.40435 -0.192832 26.1063
1 7.48602 -0.197305 26.5016
1 9.40274 -0.181476 28.0792
2 7.48415 3.6479 0.0636576
1 7.48281 5.56651 0.459262
1 7.48155 3.64702 2.03729
2 7.48236 5.566 2.43247
1 9.40152 5.575 2.82768
1 7.48324 5.56263 4.4057
2 9.40303 5.56682 4.8004
1 9.40082 3.6482 5.1953
1 9.40347 5.56627 6.77375
2 9.40293 3.64729 7.16858
1 7.48359 3.64534 7.5627
1 9.40109 3.64567 9.14121
2 7.48262 3.64426 9.53468
1 7.4842 5.56422 9.92864
1 7.47981 3.6457 11.5059
2 7.48277 5.56412 11.9012
1 9.40291 5.56148 12.2949
1 7.48243 5.56523 13.8728
2 9.40305 5.55404 14.2666
1 9.39494 3.64257 14.6645
1 9.40608 5.55538 16.2434
2 9.4048 3.64151 16.6397
1 7.48588 3.65369 17.0344
1 9.40653 3.64365 18.6129
2 7.48673 3.64631 19.0061
1 7.4846 5.56543 19.4022
1 7.49845 3.64611 20.9773
2 7.48745 5.56436 21.3749
1 9.40692 5.56487 21.7698
1 7.48692 5.56561 23.3478
2 9.40684 5.56574 23.7424
1 9.41576 3.64693 24.136
1 9.40294 5.56659 25.7149
2 9.4043 3.64675 26.1081
1 7.48426 3.64648 26.5034
1 9.40242 3.65995 28.0789
2 7.48445 7.48532 0.0641768
1 7.48396 9.4048 0.458437
1 7.4832 7.48517 2.03701
2 7.48447 9.40372 2.43159
1 9.40489 9.40654 2.82649
1 7.48591 9.39366 4.40389
2 9.40542 9.40323 4.79969
1 9.40403 7.48502 5.19576
1 9.40559 9.40322 6.77321
2 9.40458 7.48461 7.16883
1 7.48496 7.47978 7.5643
1 9.4045 7.48431 9.14175
2 7.48448 7.48346 9.5359
1 7.48523 9.40212 9.929
1 7.48282 7.48285 11.5078
2 7.48199 9.40171 11.9013
1 9.40416 9.39518 12.2896
1 7.48169 9.38945 13.8716
2 9.40412 9.37654 14.2595
1 9.40456 7.46477 14.6543
1 9.4001 9.35921 16.2381
2 9.40374 7.45926 16.6386
1 7.48182 7.47426 17.0355
1 9.40301 7.47742 18.6134
2 7.48271 7.48319 19.0077
1 7.48052 9.40195 19.4022
1 7.48524 7.48379 20.9813
2 7.48458 9.40352 21.375
1 9.40349 9.40352 21.77
1 7.48458 9.40499 23.348
2 9.40393 9.4048 23.7429
1 9.40471 7.48523 24.1369
1 9.40394 9.40527 25.7157
2 9.40407 7.48549 26.1095
1 7.48395 7.48519 26.5043
1 9.40356 7.48955 28.0816
2 7.48442 11.3243 0.0642472
1 7.48438 13.2436 0.458378
1 7.48591 11.323 2.03729
2 7.48736 13.243 2.43067
1 9.4076 13.244 2.82733
1 7.48416 13.2298 4.40368
2 9.40654 13.2425 4.80042
1 9.40599 11.3223 5.19516
1 9.40367 13.2409 6.77399
2 9.40535 11.3218 7.16875
1 7.48661 11.3106 7.56673
1 9.40649 11.3239 9.14208
2 7.48571 11.3221 9.5372
1 7.48927 13.2397 9.93079
1 7.47697 11.3187 11.5082
2 7.48296 13.2393 11.9008
1 9.40527 13.2087 12.2701
1 7.4846 13.2305 13.8735
2 9.40467 13.2143 14.2383
1 9.40158 11.2794 14.6452
1 9.3994 13.1042 16.1738
2 9.39285 11.2311 16.6422
1 7.47953 11.3081 17.0328
1 9.39379 11.3122 18.6132
2 7.47635 11.3231 19.0086
1 7.4718 13.245 19.403
1 7.48311 11.3231 20.9809
2 7.47878 13.2435 21.3761
1 9.39896 13.2493 21.7661
1 7.48366 13.243 23.3499
2 9.39984 13.2453 23.7414
1 9.40269 11.3243 24.1371
1 9.40359 13.2451 25.7143
2 9.4043 11.3254 26.1099
1 7.48443 11.3255 26.5049
1 9.40391 11.3247 28.0827
2 7.48923 15.1622 0.0620549
1 7.52004 17.0827 0.432735
1 7.49418 15.1631 2.03682
2 7.5138 17.0831 2.40177
1 9.44668 17.0742 2.81023
1 7.6246 17.086 4.33845
2 9.49622 17.0827 4.80887
1 9.41748 15.1634 5.19811
1 9.4154 17.0832 6.77685
2 9.4056 15.1609 7.17118
1 7.48429 15.1541 7.56446
1 9.40499 15.1654 9.14336
2 7.48548 15.1604 9.53865
1 7.47819 17.0858 9.9264
1 7.49129 15.1643 11.5096
2 7.4842 17.0896 11.8978
1 9.40664 17.1225 12.2697
1 7.48604 17.0838 13.8706
2 9.40528 17.1149 14.2387
1 9.40655 15.1645 14.3115
1 9.40679 17.2268 16.1755
1 7.34357 15.1521 17.1036
1 9.40311 15.169 18.967
2 7.45309 15.1653 19.0394
1 7.47428 17.0858 19.4029
1 7.44687 15.1666 21.0077
2 7.4789 17.0884 21.3772
1 9.40397 17.0838 21.768
1 7.48387 17.0888 23.3487
2 9.40406 17.0861 23.7403
1 9.40258 15.1662 24.1355
1 9.40354 17.0845 25.7129
2 9.40433 15.1654 26.1079
1 7.48445 15.1632 26.5029
1 9.40808 15.1528 28.0789
2 7.4913 19.0033 0.0616809
1 7.49767 20.921 0.458348
1 7.4944 19.0024 2.03677
2 7.48866 20.9257 2.43062
1 9.40524 20.9104 2.82808
1 7.48438 20.9431 4.40756
2 9.40215 20.926 4.80358
1 9.41595 19.0017 5.1984
1 9.40307 20.9263 6.77618
2 9.40499 19.0064 7.17115
1 7.48425 19.0162 7.56422
1 9.40372 19.0069 9.1429
2 7.48517 19.0126 9.53706
1 7.49387 20.9333 9.92988
1 7.48657 19.0078 11.5054
2 7.4842 20.9256 11.8997
1 9.40536 20.9367 12.2907
1 7.48177 20.9309 13.8717
2 9.40614 20.952 14.259
1 9.40421 19.0492 14.6477
1 9.41923 20.9717 16.2381
2 9.40646 19.0989 16.6469
1 7.48401 19.0072 17.0376
1 9.40813 19.0203 18.6149
2 7.48396 19.0074 19.0104
1 7.49363 20.9292 19.4023
1 7.48444 19.0073 20.9814
2 7.49078 20.9267 21.376
1 9.41058 20.9197 21.7704
1 7.48647 20.9225 23.3465
2 9.4057 20.9259 23.7408
1 9.40419 19.005 24.1338
1 9.40157 20.9211 25.7103
2 9.40427 19.0039 26.1058
1 7.48539 19.007 26.5023
1 9.40837 18.9964 28.0754
2 7.50755 22.8444 0.0588622
1 7.47731 24.7724 0.450909
1 7.46749 22.8487 2.03146
2 7.3757 24.7719 2.41377
1 9.23021 24.7699 2.89063
1 7.4047 24.7816 4.42094
2 9.28483 24.7715 4.8376
1 9.38646 22.8489 5.19901
1 9.36978 24.7716 6.79932
2 9.39799 22.8464 7.17319
1 7.48061 22.8568 7.56946
1 9.40496 22.8464 9.1441
2 7.48547 22.8513 9.53951
1 7.48808 24.7707 9.92969
1 7.47951 22.8509 11.5109
2 7.48396 24.7748 11.9008
1 9.40332 24.7717 12.2943
1 7.48168 24.7834 13.8739
2 9.40426 24.7828 14.265
1 9.41667 22.8678 14.6527
1 9.42023 24.7789 16.2416
2 9.49876 22.8737 16.6306
1 7.62441 22.8626 17.1036
1 9.44993 22.853 18.6313
2 7.51418 22.8492 19.039
1 7.49599 24.7683 19.4022
1 7.52283 22.8486 21.0073
2 7.49361 24.7704 21.3761
1 9.41281 24.7759 21.7718
1 7.48875 24.7717 23.3476
2 9.40788 24.7686 23.743
1 9.40621 22.8472 24.1321
1 9.41159 24.7692 25.7141
2 9.4134 22.8424 26.1015
1 7.50241 22.8466 26.4893
1 9.41141 22.8345 28.0773
2 11.3208 -0.163673 0.0292919
1 11.3237 1.7731 0.434978
1 11.3173 -0.0468027 1.96424
2 11.3211 1.82031 2.43605
1 13.244 1.75524 2.8273
1 11.3243 1.755 4.40533
2 13.2475 1.82086 4.79662
1 13.2469 -0.0458972 5.26948
1 13.2469 1.77361 6.79818
2 13.249 -0.163737 7.20384
1 11.3237 -0.188521 7.55966
1 13.2403 -0.167301 9.16919
2 11.3203 -0.194791 9.53383
1 11.3081 1.7277 9.92413
1 11.3086 -0.19994 11.5043
2 11.2984 1.72271 11.8924
1 13.2008 1.72292 12.2798
1 11.2819 1.72322 13.8709
2 13.1522 1.72311 14.2787
1 13.2309 -0.196594 14.6668
1 13.2343 1.72309 16.2463
2 13.2468 -0.199734 16.6402
1 11.3272 -0.196946 17.034
1 13.2474 -0.197992 18.6123
2 11.3285 -0.197661 19.0073
1 11.3299 1.72283 19.3991
1 11.3311 -0.197026 20.9801
2 11.3369 1.72334 21.3706
1 13.2501 1.72227 21.7664
1 11.3359 1.72311 23.3466
2 13.2503 1.72276 23.742
1 13.2503 -0.197882 24.1371
1 13.2541 1.72794 25.7137
2 13.2472 -0.192782 26.1093
1 11.3258 -0.159217 26.4757
1 13.2449 -0.18664 28.0836
2 11.3255 3.67457 0.052094
1 11.3255 5.58573 0.446664
1 11.323 3.69077 2.03084
2 11.3243 5.59111 2.43061
1 13.2476 5.5808 2.82758
1 11.3231 5.58033 4.40456
2 13.2464 5.59132 4.80171
1 13.2474 3.6911 5.2018
1 13.2452 5.58634 6.78543
2 13.2452 3.67529 7.18025
1 11.321 3.65901 7.5651
1 13.2404 3.66186 9.14768
2 11.3204 3.64741 9.53574
1 11.3227 5.56693 9.92955
1 11.3114 3.64645 11.5062
2 11.3231 5.5644 11.9021
1 13.2429 5.56354 12.2975
1 11.324 5.56056 13.8744
2 13.2441 5.56392 14.2706
1 13.2309 3.64276 14.6674
1 13.2471 5.56545 16.2441
2 13.2443 3.64611 16.6406
1 11.3247 3.64424 17.0341
1 13.2449 3.64351 18.6126
2 11.3256 3.6433 19.0069
1 11.3247 5.56271 19.4023
1 11.3301 3.64405 20.9791
2 11.3261 5.56308 21.3751
1 13.2451 5.56322 21.7699
1 11.3263 5.56554 23.348
2 13.245 5.5642 23.7425
1 13.2473 3.64453 24.1355
1 13.2473 5.56514 25.7147
2 13.248 3.64562 26.1078
1 11.3261 3.65463 26.4968
1 13.2486 3.65911 28.0788
2 11.3253 7.49685 0.0596448
1 11.3254 9.40962 0.455725
1 11.3247 7.49593 2.03588
2 11.3258 9.40939 2.43189
1 13.2468 9.40709 2.82702
1 11.3252 9.40642 4.40488
2 13.2462 9.40929 4.80028
1 13.2465 7.4961 5.19654
1 13.2459 9.40967 6.7767
2 13.2458 7.49704 7.17289
1 11.324 7.48925 7.56433
1 13.2459 7.48856 9.14406
2 11.3247 7.48512 9.53583
1 11.325 9.40412 9.92801
1 11.3255 7.4834 11.508
2 11.326 9.40254 11.9001
1 13.2456 9.40358 12.2938
1 11.3257 9.38937 13.8705
2 13.2429 9.40162 14.2676
1 13.2446 7.4826 14.6652
1 13.2315 9.40139 16.2395
2 13.2429 7.48426 16.6396
1 11.3248 7.47254 17.036
1 13.2419 7.48297 18.6139
2 11.3229 7.48122 19.0085
1 11.3154 9.39985 19.4033
1 11.3247 7.4823 20.9816
2 11.3224 9.40245 21.3758
1 13.2412 9.40063 21.7707
1 11.3229 9.40317 23.3488
2 13.2426 9.40358 23.7435
1 13.245 7.48413 24.1371
1 13.2462 9.40388 25.7163
2 13.2464 7.48417 26.1096
1 11.3252 7.48804 26.5017
1 13.2468 7.48945 28.0817
2 11.3249 11.3242 0.0629536
1 11.3259 13.2381 0.454814
1 11.3261 11.3246 2.03816
2 11.3283 13.2397 2.4316
1 13.2487 13.2414 2.8275
1 11.3274 13.2414 4.40526
2 13.248 13.2393 4.80088
1 13.2464 11.3244 5.19467
1 13.2456 13.239 6.77757
2 13.2459 11.3244 7.16971
1 11.325 11.3242 7.56332
1 13.2464 11.3249 9.14168
2 11.3262 11.3249 9.53545
1 11.3279 13.2449 9.92943
1 11.3327 11.3202 11.5064
2 11.3269 13.2403 11.9005
1 13.2456 13.2454 12.2947
1 11.3243 13.2358 13.8739
2 13.2446 13.2446 14.2666
1 13.2343 11.3228 14.6582
1 13.2451 13.2487 16.2377
2 13.2194 11.3241 16.6282
1 11.3048 11.3098 17.024
1 13.2029 11.3242 18.6068
2 11.3022 11.3228 19.0073
1 11.3216 13.2474 19.4012
1 11.3151 11.3227 20.9803
2 11.3171 13.2445 21.3732
1 13.2289 13.2396 21.7608
1 11.3143 13.2426 23.3483
2 13.2197 13.2453 23.7426
1 13.2343 11.3226 24.1392
1 13.2405 13.2452 25.7164
2 13.2443 11.3244 26.1109
1 11.3243 11.3243 26.5043
1 13.2459 11.3247 28.0833
2 11.3272 15.1511 0.0574195
1 11.3347 17.0642 0.439346
1 11.3385 15.1512 2.03153
2 11.3513 17.0586 2.41985
1 13.2658 17.0677 2.81637
1 11.3668 17.0687 4.40035
2 13.2705 17.0583 4.80161
1 13.2573 15.1516 5.19875
1 13.2507 17.0635 6.7879
2 13.247 15.152 7.17441
1 11.3255 15.1586 7.56598
1 13.2465 15.1624 9.14581
2 11.3253 15.1656 9.53843
1 11.3262 17.0855 9.93045
1 11.3225 15.1658 11.5104
2 11.328 17.0915 11.9014
1 13.2468 17.0868 12.2969
1 11.3257 17.097 13.8752
2 13.2471 17.0901 14.2685
1 13.2565 15.168 14.6616
1 13.2598 17.0863 16.2416
2 13.3347 15.1667 16.6296
1 11.4639 15.1686 17.1016
1 13.2864 15.1695 18.6287
2 11.3534 15.168 19.038
1 11.3364 17.0882 19.4025
1 11.3573 15.1684 21.0064
2 11.3291 17.0892 21.377
1 13.248 17.0963 21.7722
1 11.3237 17.0907 23.3488
2 13.2429 17.0878 23.7433
1 13.2342 15.168 24.138
1 13.2477 17.0861 25.715
2 13.2453 15.1665 26.1095
1 11.3254 15.1627 26.4998
1 13.2477 15.1585 28.081
2 11.3278 18.9774 0.0492319
1 11.3251 20.8793 0.433636
1 11.3361 18.9616 2.02616
2 11.3201 20.8312 2.43575
1 13.236 20.8972 2.82925
1 11.3224 20.8978 4.40896
2 13.2382 20.831 4.80228
1 13.2542 18.9601 5.20559
1 13.2438 20.8784 6.80201
2 13.2469 18.9756 7.18291
1 11.3239 18.993 7.56785
1 13.2459 18.996 9.15135
2 11.3236 19.0052 9.53806
1 11.3177 20.9236 9.92976
1 11.333 19.0112 11.5086
2 11.327 20.9301 11.9006
1 13.2473 20.9288 12.2954
1 11.3292 20.94 13.8715
2 13.2469 20.9282 14.2692
1 13.2433 19.0088 14.6648
1 13.2571 20.9264 16.2422
2 13.2489 19.0073 16.6385
1 11.3274 19.0209 17.0358
1 13.2502 19.0067 18.6119
2 11.3313 19.0088 19.0094
1 11.3412 20.9274 19.4064
1 11.3263 19.007 20.9819
2 11.3279 20.9269 21.3773
1 13.2465 20.9277 21.7709
1 11.3266 20.9269 23.3497
2 13.246 20.9279 23.7428
1 13.2451 19.0072 24.1354
1 13.2533 20.9226 25.7134
2 13.2478 19.0053 26.1067
1 11.3266 18.9963 26.4933
1 13.2487 18.9921 28.0766
2 11.3243 22.816 0.0282107
1 11.3161 24.7704 0.0954667
1 11.3172 22.6992 1.96364
1 13.3732 24.7725 2.50202
1 11.1716 24.7703 4.70398
1 13.2418 22.6996 5.27218
1 13.2554 24.7693 7.13557
2 13.2488 22.8156 7.20603
1 11.3244 22.8408 7.56202
1 13.2454 22.8102 9.17207
2 11.3232 22.843 9.53575
1 11.3274 24.7674 9.92679
1 11.3226 22.8492 11.5078
2 11.3233 24.7687 11.8996
1 13.2434 24.7692 12.2957
1 11.3259 24.7742 13.8731
2 13.2456 24.7686 14.2694
1 13.251 22.848 14.6652
1 13.2592 24.7689 16.2422
2 13.2714 22.8474 16.6407
1 11.3709 22.8585 17.04
1 13.2643 22.8478 18.6252
2 11.3526 22.8497 19.0187
1 11.3398 24.7716 19.4065
1 11.3347 22.8489 20.9885
2 11.3292 24.7707 21.3776
1 13.2473 24.7699 21.772
1 11.3283 24.7683 23.3506
2 13.247 24.7689 23.7448
1 13.2492 22.8481 24.136
1 13.2426 24.7696 25.7167
2 13.2468 22.8435 26.1076
1 11.329 22.81 26.4718
1 13.244 22.8392 28.0831
2 15.1702 -0.188997 0.0578632
1 15.1657 1.73085 0.45672
1 15.1725 -0.191856 2.03055
2 15.168 1.72804 2.4303
1 17.0874 1.72446 2.82785
1 15.1674 1.74075 4.40476
2 17.0889 1.7276 4.80186
1 17.099 -0.196512 5.20347
1 17.0866 1.73185 6.77553
2 17.0889 -0.188239 7.17672
1 15.1682 -0.183778 7.56715
1 17.0885 -0.192759 9.14729
2 15.1632 -0.194562 9.5386
1 15.1371 1.72838 9.90666
1 15.1583 -0.197747 11.5104
2 15.1359 1.7233 11.8733
1 17.087 1.72315 11.9463
1 15.0237 1.72275 13.8088
1 17.0869 -0.340693 14.7335
1 17.0865 1.72146 16.5969
2 17.0872 -0.228901 16.6698
1 15.1674 -0.207391 17.0345
1 17.0865 -0.236526 18.6384
2 15.1653 -0.203415 19.0091
1 15.168 1.72127 19.3999
1 15.1627 -0.198954 20.9811
2 15.1652 1.72155 21.3725
1 17.0802 1.71765 21.767
1 15.1656 1.7225 23.3477
2 17.0811 1.72167 23.7423
1 17.0837 -0.198202 24.1361
1 17.0846 1.72255 25.7149
2 17.0845 -0.197438 26.108
1 15.1653 -0.193721 26.5005
1 17.0851 -0.179488 28.0786
2 15.1669 3.64865 0.0632108
1 15.1671 5.56719 0.458696
1 15.1688 3.64885 2.0369
2 15.1676 5.56763 2.43177
1 17.087 5.56459 2.82627
1 15.1689 5.57577 4.40438
2 17.0874 5.56822 4.79985
1 17.0877 3.64938 5.19636
1 17.0873 5.56916 6.77315
2 17.087 3.65084 7.17104
1 15.1684 3.66367 7.56709
1 17.0872 3.64216 9.14496
2 15.1622 3.64789 9.5369
1 15.1672 5.56655 9.93108
1 15.1555 3.64496 11.5107
2 15.1631 5.5661 11.9022
1 17.0871 5.57627 12.2958
1 15.1665 5.57823 13.8745
2 17.087 5.65643 14.263
1 17.0872 3.78485 14.7328
1 17.0848 5.60681 16.2618
2 17.086 3.67207 16.6691
1 15.1652 3.65374 17.0337
1 17.0843 3.66947 18.6374
2 15.1633 3.64625 19.0083
1 15.1568 5.56558 19.4037
1 15.1616 3.64179 20.9802
2 15.1643 5.56073 21.3757
1 17.0824 5.55018 21.773
1 15.1635 5.56216 23.3488
2 17.0828 5.5594 23.7446
1 17.0819 3.64087 24.1381
1 17.0852 5.56049 25.7174
2 17.0864 3.64143 26.1105
1 15.1677 3.64391 26.5035
1 17.0857 3.64597 28.0834
2 15.1659 7.486 0.0643836
1 15.1662 9.40545 0.458963
1 15.1682 7.48672 2.03704
2 15.1669 9.40541 2.43224
1 17.0865 9.40459 2.82767
1 15.167 9.40685 4.4052
2 17.0868 9.40587 4.80025
1 17.0869 7.48757 5.19528
1 17.0869 9.40597 6.77367
2 17.0869 7.48692 7.16876
1 15.1675 7.49001 7.56467
1 17.087 7.48435 9.14221
2 15.1668 7.4856 9.53638
1 15.1675 9.40583 9.92927
1 15.1647 7.48637 11.5085
2 15.1659 9.4063 11.9014
1 17.0868 9.40745 12.2958
1 15.1596 9.40719 13.8721
2 17.0817 9.42746 14.2693
1 17.0866 7.52711 14.6696
1 17.0763 9.42316 16.2542
2 17.0836 7.50983 16.6478
1 15.1606 7.49803 17.0381
1 17.087 7.47778 18.6175
2 15.1627 7.48331 19.0092
1 15.1498 9.40353 19.4039
1 15.1651 7.48073 20.9823
2 15.1611 9.39981 21.377
1 17.0821 9.39283 21.7707
1 15.1624 9.40305 23.3492
2 17.0826 9.39733 23.7446
1 17.0762 7.47651 24.1399
1 17.0842 9.40082 25.7164
2 17.0857 7.48059 26.1114
1 15.1661 7.48313 26.505
1 17.0848 7.48411 28.0843
2 15.1658 11.3246 0.0642003
1 15.1667 13.2433 0.45816
1 15.1671 11.3246 2.03729
2 15.1677 13.2437 2.43188
1 17.0868 13.2436 2.8269
1 15.1682 13.2414 4.40513
2 17.0869 13.2438 4.80028
1 17.0871 11.3248 5.19523
1 17.0869 13.2436 6.77397
2 17.0869 11.3249 7.16848
1 15.1671 11.3251 7.5632
1 17.087 11.3255 9.14151
2 15.1667 11.3257 9.53543
1 15.1672 13.2456 9.93008
1 15.166 11.3261 11.5078
2 15.1665 13.246 11.9021
1 17.0872 13.2493 12.2958
1 15.1626 13.2533 13.8731
2 17.0832 13.2514 14.268
1 17.0505 11.3349 14.6397
1 17.087 13.2491 16.2447
2 17.0593 11.3356 16.6119
1 15.1221 11.3279 17.0162
1 16.9439 11.321 18.5467
2 15.0732 11.3232 19.0141
1 15.1564 13.2438 19.4011
1 15.1406 11.321 20.9806
2 15.1412 13.2471 21.3689
1 17.0463 13.2518 21.7566
1 15.1215 13.246 23.3457
2 16.9906 13.252 23.7536
1 17.0766 11.326 24.1379
1 17.0715 13.246 25.7194
2 17.0848 11.3218 26.1108
1 15.1642 11.3231 26.5045
1 17.0855 11.3239 28.0831
2 15.1664 15.1627 0.0631977
1 15.1702 17.0818 0.45498