1799
Atoms. Timestep: 826
2 26.7642 -0.226818 28.6231
1 26.7616 1.67601 0.315874
1 -0.267306 -0.25447 1.87212
2 26.7655 1.65649 2.28921
1 1.65094 1.74737 2.72327
1 26.7302 1.52788 4.23046
2 1.65447 1.78567 4.71732
1 1.64325 -0.252911 5.13729
1 1.6546 1.65174 6.70976
2 1.64693 -0.252638 7.10622
1 26.7581 -0.265785 7.51909
1 1.65043 26.7654 9.08233
2 -0.272424 26.7607 9.48992
1 -0.263865 1.64675 9.89379
1 -0.269693 26.7623 11.4737
2 26.7617 1.65228 11.8712
1 1.63862 1.66545 12.2656
1 -0.274931 1.64846 13.8576
2 1.63801 1.64324 14.2655
1 1.62278 26.7591 14.6803
1 1.66004 1.65046 16.2526
2 1.6549 26.7653 16.6588
1 -0.268382 -0.26922 17.0724
1 1.65052 -0.269725 18.6366
2 26.766 -0.268331 19.0604
1 26.7649 1.65619 19.4736
1 26.7652 -0.267637 21.049
2 -0.271761 1.66117 21.4538
1 1.63767 1.65601 21.8609
1 -0.265342 1.66302 23.4433
2 1.6556 1.66019 23.8509
1 1.65133 -0.268755 24.2604
1 1.63616 1.65949 25.8435
2 1.64245 26.7596 26.2371
1 26.7524 -0.265537 26.6441
1 1.64575 -0.211346 28.2089
2 26.7553 3.59375 -0.0896004
1 26.759 5.51968 0.312302
1 26.7492 3.59719 1.89472
2 26.7663 5.53538 2.28835
1 1.65339 5.46235 2.71963
1 26.7255 5.64116 4.23808
2 1.65553 5.38653 4.70903
1 2.41208 3.58506 5.14272
1 1.6608 5.53593 6.68883
2 1.65917 3.59377 6.99574
1 26.7577 3.62214 7.55063
1 1.66109 3.56998 9.0761
2 -0.270794 3.57612 9.4852
1 -0.262583 5.50471 9.87857
1 26.7314 3.57306 11.4515
2 26.7424 5.4935 11.8714
1 1.59218 5.37628 12.3158
1 26.7571 5.54445 13.8776
2 1.6488 5.51836 14.2757
1 1.63781 3.58141 14.687
1 1.6643 5.49725 16.2737
2 1.65263 3.57508 16.67
1 26.7627 3.58222 17.0757
1 1.63677 3.57749 18.6544
2 26.7662 3.58902 19.0683
1 -0.273523 5.52266 19.4766
1 26.764 3.59189 21.047
2 26.7591 5.52176 21.4591
1 1.62988 5.51405 21.8833
1 26.7585 5.51824 23.4479
2 1.64913 5.51926 23.852
1 1.65556 3.59029 24.2712
1 1.61149 5.531 25.8271
2 1.63929 3.59984 26.255
1 26.7596 3.59281 26.6623
1 1.6351 3.58752 28.2516
2 26.7433 7.45486 -0.0964178
1 26.7568 9.38845 0.307591
1 26.7644 7.4581 1.87372
2 26.7655 9.38149 2.29211
1 1.64913 9.38103 2.7031
1 26.7623 9.37347 4.27429
2 1.65116 9.35346 4.6771
1 1.65453 7.43668 5.0991
1 1.65126 9.36443 6.6541
2 1.65097 7.4478 7.06526
1 26.7413 7.46293 7.47543
1 1.61641 7.44661 8.99642
2 26.7455 7.45316 9.46847
1 -0.229145 9.37579 9.91933
1 26.635 7.39605 11.4196
2 -0.19706 9.40918 11.9131
1 1.71113 10.2323 12.3092
1 26.7578 9.45068 13.9524
2 1.66176 9.42117 14.2374
1 1.62736 7.42548 14.7638
1 1.66272 9.38608 16.2744
2 1.65127 7.44798 16.6865
1 26.7599 7.44672 17.089
1 1.64803 7.45078 18.6447
2 26.7623 7.45084 19.0676
1 26.7651 9.37846 19.4739
1 26.762 7.45324 21.0478
2 -0.26836 9.38044 21.4566
1 1.65385 9.37547 21.8824
1 26.7655 9.38306 23.4383
2 1.65534 9.38442 23.8508
1 1.63443 7.45273 24.2583
1 1.6341 9.38356 25.836
2 1.56037 7.45537 26.2337
1 26.7252 7.45678 26.6586
1 1.60828 7.44987 28.2527
2 26.7639 11.3107 28.6404
1 -0.270409 13.229 0.3083
1 26.7644 11.3052 1.8873
2 26.7576 13.2194 2.29866
1 1.65294 13.2242 2.69567
1 26.766 13.2181 4.27696
2 1.65408 13.1472 4.672
1 1.65382 11.2695 5.09006
1 1.66213 13.1845 6.68115
2 1.65967 11.2751 7.08377
1 26.7664 11.357 7.50175
1 1.68494 11.1822 9.02918
2 26.7429 11.4586 9.49479
1 0.469505 13.2301 9.96541
1 26.6327 11.3272 11.4541
2 26.7464 13.2491 11.7951
1 1.68661 13.2629 12.3537
1 26.7627 13.2235 13.8736
2 1.65129 13.2431 14.2955
1 1.67228 11.3444 14.7569
1 1.6469 13.2579 16.2918
2 1.65094 11.3169 16.688
1 26.7574 11.3134 17.0823
1 1.64871 11.294 18.6437
2 26.7594 11.3036 19.0624
1 26.7428 13.2274 19.461
1 -0.269627 11.3059 21.0458
2 -0.266392 13.2308 21.4522
1 1.65524 13.2341 21.8733
1 26.7638 13.2265 23.4332
2 1.65436 13.2326 23.8471
1 1.64791 11.3112 24.2648
1 1.65397 13.2385 25.8306
2 1.6508 11.3144 26.248
1 26.7641 11.312 26.658
1 1.64813 11.3114 28.2339
2 -0.263066 15.1416 28.6375
1 -0.139975 17.0047 0.351935
1 26.7143 15.1233 1.90516
2 26.7407 17.0586 2.28186
1 1.62636 16.9076 2.46887
1 26.6183 17.1377 4.21945
1 1.64118 15.0127 5.16204
1 1.63434 17.1048 7.01224
2 1.67286 15.1445 7.09138
1 -0.253445 15.129 7.54436
1 1.79721 15.1543 9.00538
2 -0.269388 15.1721 9.53888
1 0.476979 17.1025 9.95586
1 26.7666 15.1748 11.5218
2 26.7638 17.1096 11.8032
1 1.66262 17.119 12.3451
1 26.7622 17.1118 13.88
2 1.64377 17.0928 14.28
1 1.60336 15.161 14.682
1 1.65872 17.1085 16.2426
2 1.63258 15.1841 16.646
1 26.7262 15.1805 17.0631
1 1.50723 15.1896 18.5787
2 26.6836 15.168 19.069
1 26.6637 17.0955 19.4974
1 -0.168209 15.1319 21.011
2 26.6364 17.1065 21.4852
1 1.6498 17.1099 21.8717
1 -0.25325 17.0936 23.464
2 1.67124 17.1013 23.8379
1 1.65203 15.1529 24.2462
1 1.79834 17.0543 25.7831
2 1.67326 15.1601 26.2381
1 -0.274289 15.1594 26.6537
1 1.67294 15.125 28.213
2 26.6447 19.0134 28.5168
1 -0.0765483 20.9606 0.405176
1 26.5667 18.9136 1.77841
2 -0.189025 21.1969 2.32333
1 1.88206 21.6672 2.89786
1 26.696 21.114 4.3358
2 1.65337 21.0508 4.6825
1 1.62383 19.1597 5.26381
1 1.6467 21.0202 6.71032
2 1.56464 19.0746 7.1522
1 26.7185 18.9901 7.53649
1 1.63916 19.206 9.08781
2 26.764 18.9017 9.53407
1 -0.27337 20.9861 9.9178
1 26.7663 19.0565 11.504
2 -0.274777 20.9735 11.8797
1 1.64545 20.9804 12.2804
1 26.7662 20.9798 13.8673
2 1.64725 20.9863 14.2704
1 1.64673 19.0446 14.6777
1 1.65706 20.973 16.2517
2 1.65647 19.0334 16.6554
1 26.7564 19.047 17.0593
1 1.60385 18.9219 18.6075
2 26.7654 19.0306 19.0563
1 -0.274994 20.9893 19.4502
1 -0.143001 19.0777 21.0029
2 -0.253216 20.9776 21.4502
1 1.64562 21.0039 21.9202
1 26.7598 20.9761 23.4461
2 1.6766 20.9757 23.8452
1 1.61592 19.0388 24.2644
1 1.79788 21.0135 25.7754
2 1.53272 19.0367 26.2398
1 -0.267716 19.798 26.6497
1 1.66087 19.0065 28.1697
2 26.5907 22.9409 -0.0498764
1 -0.193938 24.9412 0.280796
1 0.355926 23.0592 1.70887
2 -0.259901 24.7902 2.25555
1 1.73525 24.9682 2.76544
1 -0.255004 24.7985 4.24963
2 1.66483 24.8738 4.71741
1 1.66153 22.9708 5.19114
1 1.65333 24.8749 6.71962
2 1.65929 22.9347 7.12971
1 -0.255219 22.9178 7.53424
1 1.66018 22.9125 9.10207
2 -0.268142 22.9002 9.49893
1 -0.267516 24.8321 9.90163
1 -0.272822 22.9074 11.4743
2 -0.273503 24.8336 11.8788
1 1.65788 24.8363 12.2866
1 -0.271676 24.8298 13.8548
2 1.65236 24.8378 14.2636
1 1.63774 22.9158 14.6815
1 1.67414 24.845 16.24
2 1.67514 22.9204 16.6506
1 -0.237791 22.9 17.0362
1 1.66023 23.0409 18.6061
2 -0.189858 22.9234 19.0698
1 26.7534 24.8516 19.4804
1 -0.25547 22.9059 21.0426
2 26.7578 24.8403 21.4518
1 1.6427 24.8234 21.8654
1 26.7645 24.8568 23.4249
2 1.64954 24.8455 23.8357
1 1.64588 22.921 24.2338
1 1.63493 24.8381 25.8075
2 1.66595 22.9157 26.2031
1 -0.265625 22.9164 26.6193
1 1.71881 22.9327 28.1194
2 3.57182 -0.2676 28.6242
1 3.58608 1.68634 0.285857
1 3.47691 -0.214464 1.81833
2 3.58074 1.66644 2.27892
1 5.53528 1.69024 2.67825
1 3.63004 1.52897 4.23024
2 5.52861 1.6481 4.68033
1 5.56102 -0.25211 5.16892
1 5.48608 1.6887 6.67539
2 5.51064 -0.237177 7.11298
1 3.58319 -0.258611 7.51392
1 5.50436 26.7584 9.093
2 3.57783 26.7615 9.48606
1 3.58615 1.64617 9.89773
1 3.58283 26.7572 11.4597
2 3.57098 1.64573 11.8679
1 5.48151 1.72509 12.2719
1 3.53146 1.53959 13.8237
2 5.43776 1.79355 14.3039
1 5.49781 26.7658 14.6961
1 5.50712 1.63468 16.2884
2 5.51646 26.7597 16.6709
1 3.58466 26.7571 17.0809
1 5.52077 26.7453 18.6571
2 3.57513 26.7536 19.051
1 3.64753 1.64887 19.4867
1 3.46715 26.723 20.9973
2 3.7222 1.64975 21.4674
1 5.51901 2.40794 21.8923
1 3.54152 1.65094 23.4023
2 5.51947 1.64194 23.8408
1 5.52222 26.7166 24.2872
1 6.27267 1.6357 25.7819
2 5.51957 -0.157533 26.2326
1 3.54848 26.636 26.6871
1 5.51531 -0.197752 28.2214
2 3.58271 3.61154 -0.0890122
1 3.58105 5.52948 0.324714
1 3.59617 3.59732 1.89006
2 3.58686 5.53767 2.29691
1 5.53209 5.50985 2.6947
1 3.62721 5.63912 4.24252
2 5.52944 5.52979 4.68066
1 5.53652 3.59013 5.0823
1 5.51685 5.51633 6.65989
2 5.5208 3.59859 7.0849
1 3.61229 3.58234 7.54456
1 5.54472 3.56598 9.07841
2 3.59589 3.56197 9.48394
1 3.65074 5.46782 9.8245
1 3.5668 3.59275 11.4537
2 3.62167 5.60488 11.8313
1 5.55914 5.33659 12.3385
1 3.54951 5.68129 13.7966
2 5.52283 5.37329 14.3004
1 6.25191 3.56947 14.7318
1 5.51799 5.53826 16.2815
2 5.52061 3.58689 16.5883
1 3.56284 3.57675 17.1335
1 5.52141 3.58805 18.6574
2 3.57801 3.58288 19.0641
1 3.60397 5.5189 19.4482
1 3.46336 3.62113 21.0033
2 3.55854 5.51285 21.4513
1 5.51825 5.51338 21.8299
1 3.58596 5.52069 23.4322
2 5.51803 5.48351 23.8348
1 5.51924 3.58344 24.2633
1 5.49793 5.32596 25.8033
2 5.51656 3.38746 26.2383
1 3.53442 3.69287 26.7044
1 5.52062 3.53377 28.2215
2 3.55708 7.45552 -0.0735565
1 3.56166 9.38354 0.308316
1 3.54798 7.45937 1.89775
2 3.56783 9.38376 2.29512
1 5.4832 9.37913 2.70406
1 3.57771 9.37152 4.28606
2 5.50224 9.37763 4.68938
1 5.54085 7.45671 5.10025
1 5.51579 9.38409 6.67002
2 5.52985 7.45038 7.062
1 3.59435 7.4608 7.49034
1 5.55613 7.4522 8.9986
2 3.63063 7.43591 9.50914
1 3.56718 9.38205 9.89259
1 4.4483 7.46124 11.4382
2 3.41394 9.19274 11.8793
1 5.59017 9.5043 12.3557
1 3.60764 9.32979 13.8713
2 5.52614 9.39479 14.2858
1 5.53325 7.45202 14.6975
1 5.52209 9.38399 16.2593
2 5.5204 7.4538 16.6691
1 3.5874 7.45822 17.0861
1 5.52408 7.44958 18.6526
2 3.57983 7.44001 19.0596
1 3.63977 9.35017 19.4804
1 3.45099 7.40462 21.0171
2 3.70379 9.37887 21.4793
1 5.51488 10.1802 21.9135
1 3.57596 9.37741 23.4656
2 5.52004 9.40469 23.7364
1 5.5243 7.40742 24.0881
1 5.49964 9.5502 25.7621
1 3.4253 7.4508 26.7279
1 5.51176 7.45732 28.5785
2 3.57196 11.3099 -0.0902678
1 3.59493 13.232 0.314508
1 3.57849 11.3111 1.88988
2 3.58763 13.2456 2.29256
1 5.51263 13.2385 2.71474
1 3.57745 13.2225 4.26941
2 5.51595 13.2261 4.67735
1 5.51584 11.2963 5.07529
1 5.53533 13.1923 6.62293
2 5.53316 11.3004 7.07559
1 3.60618 11.3135 7.48533
1 5.5403 11.2886 9.05685
2 3.60817 11.2877 9.47249
1 3.49515 13.1941 9.91126
1 3.74491 11.3595 11.4194
2 3.5965 13.252 11.8783
1 5.53721 13.2686 12.2957
1 3.60629 13.244 13.8752
2 5.53183 13.2518 14.2744
1 5.52792 11.3241 14.7045
1 5.52897 13.2508 16.2639
2 5.52269 11.3172 16.677
1 3.59185 11.3 17.0846
1 5.5234 11.311 18.6554
2 3.5746 11.2293 19.0516
1 3.60597 13.1106 19.5183
1 3.45242 11.3056 21.0214
2 3.57532 13.2274 21.4694
1 5.515 13.2554 21.8414
1 3.58766 13.2207 23.4502
2 5.5156 13.2677 23.8352
1 5.53129 11.389 24.3
1 5.49039 13.2995 25.8368
2 5.50505 11.419 26.2687
1 3.57511 11.3344 26.6668
1 5.49253 11.2841 28.2416
2 3.61139 15.1452 28.6285
1 3.65631 17.0545 0.232802
1 3.59209 15.166 1.86251
2 3.63142 17.1767 2.22717
1 5.5811 16.91 2.72079
1 3.7348 17.1532 4.19426
2 5.60174 17.0647 4.66646
1 5.54042 15.1287 5.07479
1 5.54537 16.9697 6.56735
2 5.54198 15.0858 7.18713
1 3.61077 15.1561 7.41341
1 5.52812 15.9074 9.02445
2 3.72904 15.1718 9.43592
1 3.50752 17.1753 9.93026
1 3.64776 15.177 11.4285
2 3.57317 17.1023 11.878
1 5.51981 17.1753 12.2953
1 3.56645 16.9758 13.8361
2 5.52494 17.2362 14.2888
1 5.55255 15.1741 14.6712
1 5.52552 17.087 16.2671
2 5.5453 15.1775 16.6409
1 3.588 15.1727 16.7434
1 5.67627 15.1846 18.5859
1 3.58822 17.2972 19.5457
1 3.5805 15.1817 21.3705
2 3.58362 17.1338 21.4761
1 5.52723 17.1079 21.8513
1 3.59397 17.1305 23.4394
2 5.52039 17.1136 23.8341
1 5.51698 15.1887 24.2376
1 5.50395 17.107 25.8158
2 5.52202 15.1992 26.2383
1 3.60182 15.1421 26.6565
1 5.54173 15.1509 28.2106
2 3.60722 19.0208 -0.0626545
1 3.56515 20.9736 0.280837
1 4.47454 19.0553 1.84545
2 3.49744 20.7772 2.29389
1 5.59692 21.1139 2.75852
1 3.64841 20.8723 4.338
2 5.5301 21.01 4.70897
1 5.58086 19.0333 4.76343
1 5.47413 21.0941 6.6572
1 3.45595 19.0277 7.57592
1 5.52995 19.0604 9.43226
2 3.56624 19.0759 9.52073
1 3.61335 20.992 9.90416
1 3.55574 19.0636 11.5141
2 3.58716 20.9968 11.8801
1 5.52141 20.929 12.3079
1 3.54969 21.0971 13.8289
2 5.52121 20.8424 14.2992
1 6.27557 19.0403 14.7255
1 5.53489 20.9912 16.2816
2 5.52501 19.0326 16.5784
1 3.56499 19.1131 17.1377
1 5.56433 18.9325 18.5981
2 3.59361 19.2344 19.0864
1 4.34682 20.9974 19.5259
1 3.59202 19.0638 21.1091
2 3.59233 20.9923 21.3757
1 5.54811 20.9828 21.9129
1 3.60037 20.9768 23.4303
2 5.51951 20.9764 23.8543
1 5.51781 19.0414 24.2508
1 5.52042 20.9743 25.8211
2 5.50069 19.0377 26.2093
1 3.58036 19.0385 26.6402
1 5.52416 19.0706 28.1397
2 3.60447 22.9089 28.5923
1 3.64189 24.863 0.304464
1 3.62372 22.9428 1.75714
2 3.72601 24.8663 2.3242
1 5.51083 25.6475 2.74323
1 3.58612 24.8457 4.34168
2 5.53304 24.8641 4.62209
1 5.5129 22.9435 5.18651
1 5.51039 24.8815 6.72695
2 5.50924 22.989 7.13186
1 3.5855 22.9247 7.52698
1 5.51026 22.9359 9.10529
2 3.58434 22.9144 9.49515
1 3.57577 24.8393 9.89032
1 3.5885 22.9171 11.4646
2 3.58679 24.8364 11.8766
1 5.51563 24.8379 12.2863
1 3.58541 24.8341 13.8598
2 5.5151 24.8363 14.2619
1 5.51705 22.9017 14.6891
1 5.51688 24.8376 16.2343
2 5.52761 22.9174 16.6548
1 3.59805 22.8538 17.0733
1 5.56255 23.0276 18.6049
2 3.60433 22.7918 19.0795
1 3.60304 24.816 19.4656
1 3.58848 22.9293 21.0754
2 3.57427 24.8302 21.4501
1 5.51931 24.8264 21.849
1 3.58519 24.8416 23.4312
2 5.5194 24.8328 23.8436
1 5.52601 22.9113 24.2581
1 5.53577 24.8264 25.8349
2 5.54228 22.9069 26.2266
1 3.62128 22.9388 26.6125
1 5.53205 22.8913 28.1899
2 7.46846 -0.267632 28.638
1 7.45829 1.67764 0.287496
1 7.57467 -0.224268 1.83935
2 7.46788 1.67218 2.28267
1 9.38741 1.69085 2.70619
1 7.45214 1.65613 4.27057
2 9.38433 1.66009 4.69051
1 9.3941 -0.25103 5.08794
1 9.38607 1.65791 6.66876
2 9.38783 26.6494 7.07157
1 7.41395 -0.13186 7.54677
1 9.38558 26.716 9.06114
2 7.44948 -0.26481 9.48431
1 7.43192 1.65937 9.88169
1 7.43576 26.7605 11.4489
2 7.4297 1.64449 11.8427
1 9.38876 1.6562 11.9438
1 7.32669 1.46789 13.7515
1 9.39923 26.6092 14.7575
1 9.38006 1.65935 16.5873
2 9.38751 26.7431 16.6896
1 7.45284 26.753 17.0764
1 9.39285 26.7515 18.6551
2 7.46779 26.7628 19.0519
1 7.3929 1.65152 19.4863
1 7.57024 26.7286 21.0039
2 7.31514 1.65293 21.4678
1 9.40406 1.65893 21.8575
1 7.49902 1.65262 23.4009
2 9.3868 1.66699 23.8479
1 9.39663 -0.260974 24.2514
1 9.39361 1.66359 25.8436
2 9.38139 -0.274621 26.2381
1 7.48336 26.6694 26.7036
1 9.40175 -0.259218 28.2225
2 7.4571 3.60694 -0.0919917
1 7.46314 5.51881 0.342802
1 7.46336 3.58967 1.88709
2 7.4585 5.51728 2.30861
1 9.38268 5.50043 2.71082
1 7.45476 5.52325 4.28383
2 9.38097 5.51636 4.6956
1 9.38244 3.58621 5.10948
1 9.38366 5.52125 6.6758
2 9.38737 3.5859 7.0871
1 7.45507 3.59632 7.49221
1 9.38322 3.58831 9.0675
2 7.46218 3.58665 9.48575
1 7.44459 5.51999 9.89751
1 7.49227 3.58103 11.4704
2 7.46257 5.52121 11.876
1 9.40144 5.52407 12.2708
1 7.50295 5.6626 13.8311
2 9.40313 5.62805 14.2561
1 9.40566 3.75625 14.7398
1 9.38074 5.56525 16.2773
2 9.38736 3.61621 16.6857
1 7.47711 3.59239 17.126
1 9.40423 3.60972 18.6698
2 7.46381 3.58712 19.0614
1 7.43428 5.52381 19.4453
1 7.5734 3.624 21.0021
2 7.47906 5.51834 21.4469
1 9.40829 5.5119 21.8785
1 7.44937 5.51431 23.428
2 9.3909 5.51925 23.8496
1 9.38428 3.59228 24.2711
1 9.42789 5.52747 25.8124
2 9.39817 3.60826 26.2543
1 7.50012 3.6963 26.7011
1 9.40148 3.57714 28.2456
2 7.4733 7.43641 -0.0556893
1 7.42651 9.37712 0.302545
1 7.46498 7.45327 1.91636
2 7.3648 9.37672 2.28539
1 9.23249 9.37556 2.77753
1 7.41288 9.38218 4.30387
2 9.35707 9.38112 4.71715
1 9.38332 7.44898 5.09916
1 9.35569 9.38421 6.69065
2 9.38655 7.45391 7.08197
1 7.47014 7.44781 7.47478
1 9.37977 7.44704 9.0721
2 7.45579 7.45279 9.47388
1 7.4547 9.38111 9.89683
1 7.46948 7.4566 11.4605
2 7.46442 9.39092 11.8847
1 9.38711 9.38902 12.2887
1 7.4724 9.37535 13.8854
2 9.39338 9.40253 14.276
1 9.42696 7.49971 14.693
1 9.38585 9.39825 16.2711
2 9.38946 7.47423 16.6706
1 7.45364 7.47151 17.0775
1 9.3909 7.46033 18.6396
2 7.46279 7.45485 19.0506
1 7.40492 9.38424 19.4758
1 7.57989 7.4137 21.0011
2 7.32301 9.38733 21.4601
1 9.38152 9.38129 21.8691
1 7.4469 9.37618 23.4071
2 9.37581 9.37954 23.936
1 9.39747 7.43525 24.2348
1 10.1629 9.39444 25.7688
2 9.46921 7.5884 26.2183
1 7.58123 7.25851 26.7718
1 9.42182 7.51032 28.2542
2 7.43685 11.3129 -0.0852102
1 7.32934 13.1999 0.358634
1 7.44859 11.2962 1.90016
2 7.43845 13.2354 2.30504
1 9.387 13.2428 2.70705
1 7.45701 13.2383 4.2731
2 9.38306 13.2428 4.68972
1 9.37624 11.3127 5.09685
1 9.39047 13.2319 6.67622
2 9.38647 11.3086 7.08253
1 7.46051 11.3151 7.49459
1 9.39578 11.2758 9.06016
2 7.47226 11.3014 9.48269
1 7.5809 13.2003 9.92592
1 7.47813 11.3139 11.4754
2 7.47162 13.2494 11.8822
1 9.39061 13.2563 12.307
1 7.46024 13.2408 13.8665
2 9.38943 13.2409 14.2798
1 9.38692 11.3166 14.6819
1 9.38954 13.2374 16.2585
2 9.38611 11.3175 16.6624
1 7.45289 11.3153 17.0764
1 9.39118 11.3096 18.633
2 7.46789 11.3174 19.0492
1 7.46061 13.2604 19.4559
1 7.57075 11.3497 20.9947
2 7.45801 13.2481 21.446
1 9.37787 13.2478 21.8693
1 7.44115 13.255 23.4235
2 9.37689 13.2417 23.8366
1 9.37897 11.3189 24.222
1 9.38041 13.2107 25.7721
2 9.38689 11.1905 26.2258
1 7.41495 11.4525 26.7095
1 9.38594 11.2539 28.2384
2 7.57443 15.164 28.6096
1 7.33367 17.1235 0.332046
1 7.51575 15.1445 1.85631
2 7.44946 17.0672 2.29345
1 9.34246 16.9752 2.74288
1 7.48943 17.1182 4.3067
2 9.40244 17.0953 4.70405
1 9.39449 15.1656 5.11409
1 9.40094 17.0892 6.69719
2 9.38213 15.1627 7.09072
1 7.4749 15.1564 7.47517
1 9.37809 15.1649 9.0629
2 7.32945 15.1711 9.4545
1 7.58057 17.1513 9.93043
1 7.39406 15.1726 11.4339
2 7.46458 17.0937 11.8774
1 9.38893 17.074 12.2925
1 7.48597 16.9851 13.8261
2 9.38357 17.0889 14.274
1 9.40974 15.1602 14.6886
1 9.38532 17.1102 16.2491
2 9.39934 15.1735 16.6523
1 7.49213 15.1741 17.0491
1 9.41458 15.1774 18.6287
2 7.54297 15.1808 19.0712
1 7.4972 17.0983 19.4872
1 7.46889 15.1752 21.0527
2 7.46403 17.1105 21.4561
1 9.38849 17.1042 21.8731
1 7.45064 17.1112 23.4277
2 9.38572 17.0939 23.8348
1 9.37238 15.1637 24.2599
1 9.37319 17.1222 25.7702
2 9.38082 15.1671 26.3343
1 7.43758 15.1813 26.6216
1 9.38136 15.9268 28.1857
2 7.41272 19.035 28.6299
1 7.47607 20.9528 0.314448
1 7.36189 18.9962 1.86444
2 7.54762 21.014 2.33882
1 9.47111 21.8113 2.76309
1 7.42853 21.0332 4.38574
2 9.38743 21.0042 4.66724
1 9.40224 19.0069 5.17675
1 9.39675 20.9708 6.67504
2 9.46261 19.042 7.09539
1 7.59245 19.0322 7.57768
1 9.42591 19.083 9.07042
2 7.49124 19.0532 9.52646
1 7.46825 20.9724 9.91486
1 7.48199 19.0499 11.5179
2 7.46413 20.9884 11.8832
1 9.41011 20.9638 12.2916
1 7.49293 21.0917 13.8247
2 9.39649 20.9685 14.2714
1 9.38905 19.0343 14.6697
1 9.38617 20.9608 16.259
2 9.38705 19.0384 16.6578
1 7.49275 19.0488 17.1127
1 9.3893 19.0325 18.6546
2 7.46169 19.0283 19.0642
1 7.46517 20.972 19.4639
1 7.44157 19.0441 21.0421
2 7.44349 20.9763 21.4481
1 9.35902 21.0095 21.8603
1 7.45319 20.9788 23.4422
2 9.3678 20.9811 23.8367
1 9.39117 19.0414 24.2224
1 9.27027 20.933 25.7854
2 9.36636 19.0271 26.2175
1 7.43205 19.0018 26.6127
1 9.32398 19.0518 28.16
2 7.4509 22.9066 28.6112
1 7.38416 24.861 0.313651
1 7.46313 22.9176 1.79058
2 7.31182 24.8543 2.30698
1 9.37705 24.8563 2.69626
1 7.46857 24.8404 4.25403
2 9.37828 24.8411 4.79549
1 9.39648 22.9141 5.15683
1 10.1288 24.8468 6.6523
2 9.37527 23.042 7.08672
1 7.40713 22.7929 7.5514
1 9.37625 22.9655 9.05445
2 7.45181 22.896 9.49327
1 7.44149 24.8375 9.88068
1 7.44986 22.912 11.4584
2 7.44053 24.8371 11.8685
1 9.36179 24.8537 12.2865
1 7.44512 24.8188 13.8603
2 9.3789 24.7526 14.2576
1 9.4089 22.8831 14.6906
1 9.38441 24.7943 16.2845
2 9.39165 22.8831 16.6749
1 7.46794 22.8917 17.0618
1 9.38209 22.9002 18.6597
2 7.45888 22.91 19.0507
1 7.47205 24.8311 19.4594
1 7.44342 22.9041 21.0328
2 7.4628 24.8263 21.4408
1 9.39062 24.8062 21.8673
1 7.44972 24.8278 23.4144
2 9.37345 24.8364 23.8386
1 9.43877 22.9068 24.2697
1 9.29357 24.8633 25.7841
2 9.52262 22.9033 26.2623
1 7.4663 22.8987 26.6482
1 9.36436 22.9237 28.2404
2 11.3212 -0.260947 28.6306
1 11.3269 1.65172 0.298898
1 11.3166 -0.250745 1.89348
2 11.3125 1.65215 2.28903
1 13.2444 1.66029 2.70228
1 11.3134 1.66356 4.261
2 13.2333 1.66106 4.68098
1 13.2889 26.7615 5.11515
1 13.0871 1.68598 6.61093
2 13.3398 26.7522 7.11479
1 11.3602 -0.166034 7.55017
1 13.2392 26.7628 9.11685
2 11.3185 -0.256305 9.49216
1 11.3238 1.66652 9.8903
1 11.3107 -0.269631 11.4713
2 11.3412 1.66206 11.8595
1 13.2819 1.655 12.2799
1 11.4635 1.65771 13.8006
2 13.3296 1.65704 14.2909
1 13.2544 -0.272589 14.6904
1 13.2547 1.66112 16.2631
2 13.2475 -0.264128 16.6746
1 11.3188 26.7641 17.0721
1 13.2429 -0.269083 18.6548
2 11.316 -0.274924 19.0598
1 11.3197 1.65603 19.4698
1 11.3158 26.7658 21.0445
2 11.316 1.65595 21.4483
1 13.2407 1.65895 21.8601
1 11.3092 1.67275 23.4334
2 13.2332 1.67962 23.8425
1 13.2453 -0.232895 24.2129
1 13.2436 1.66763 25.8317
2 13.251 -0.24328 26.231
1 11.3135 -0.237114 26.642
1 13.2493 -0.275075 28.2172
2 11.3258 3.56827 28.6341
1 11.3166 5.47189 0.304173
1 11.3226 3.55334 1.8854
2 11.3092 5.42746 2.30491
1 13.2415 5.50589 2.70186
1 11.3069 5.50144 4.26988
2 13.2326 5.53097 4.6771
1 13.307 3.60749 5.09543
1 13.1049 5.56932 6.62345
2 13.3658 3.62161 7.10123
1 11.3067 3.61043 7.51164
1 13.2258 3.58493 9.08906
2 11.3136 3.5915 9.48516
1 11.3109 5.52348 9.89423
1 11.3274 3.59359 11.4754
2 11.3247 5.52249 11.8732
1 13.2439 5.5248 12.2951
1 11.3209 5.54325 13.8586
2 13.2427 5.52378 14.2779
1 13.2558 3.59001 14.6845
1 13.2412 5.52359 16.2581
2 13.2423 3.5931 16.6647
1 11.3179 3.59685 17.0694
1 13.2459 3.58992 18.6501
2 11.3223 3.5895 19.0615
1 11.3201 5.52102 19.4715
1 11.3283 3.5886 21.0433
2 11.3227 5.5195 21.4548
1 13.2455 5.52822 21.8683
1 11.326 5.51185 23.4411
2 13.2442 5.51922 23.8549
1 13.2326 3.59249 24.2588
1 13.2844 5.5073 25.8309
2 13.2518 3.58894 26.245
1 11.322 3.58844 26.6544
1 13.2537 3.58193 28.2268
2 11.3343 7.41608 28.6293
1 11.3466 9.38342 -0.0275322
1 11.3166 7.29544 1.82661
1 13.4011 9.38516 2.77
1 11.3135 9.3829 4.6195
2 13.2724 9.39069 4.7123
1 13.2646 7.4698 5.08069
1 13.2604 9.38942 6.69283
2 13.2306 7.46706 7.08142
1 11.303 7.48547 7.50636
1 13.2436 7.44336 9.06907
2 11.3117 7.45254 9.48335
1 11.3191 9.37988 9.89454
1 11.3151 7.45343 11.4655
2 11.3112 9.38314 11.875
1 13.2315 9.38069 12.2778
1 11.3167 9.39464 13.8589
2 13.2269 9.38355 14.2725
1 13.2405 7.45359 14.6857
1 13.2437 9.38172 16.2564
2 13.2475 7.45259 16.6659
1 11.3231 7.45788 17.0762
1 13.2463 7.4499 18.6487
2 11.3174 7.4485 19.0568
1 11.3101 9.37774 19.465
1 11.318 7.4498 21.0363
2 11.3061 9.38036 21.4385
1 13.2576 9.38695 21.8506
1 11.3397 9.37755 23.3756
2 13.2433 9.37985 23.8501
1 13.2439 7.45185 24.267
1 13.2653 9.37694 25.845
2 13.2691 7.43482 26.2531
1 11.3749 7.3152 26.679
1 13.269 7.45012 28.2547
2 11.3329 11.343 28.6366
1 11.4441 13.2569 0.352325
1 11.2941 11.4516 1.8457
2 11.3304 13.3402 2.31915
1 13.2535 13.2598 2.72516
1 11.3157 13.2611 4.2862
2 13.251 13.2421 4.69595
1 13.2529 11.3128 5.09355
1 13.2494 13.2306 6.66734
2 13.2464 11.3121 7.0844
1 11.3185 11.3167 7.49381
1 13.2438 11.3148 9.06987
2 11.3159 11.3061 9.48025
1 11.2832 13.2275 9.89711
1 11.3121 11.311 11.467
2 11.3107 13.2412 11.8786
1 13.237 13.2329 12.2929
1 11.3176 13.239 13.8659
2 13.2385 13.2432 14.2772
1 13.2381 11.3142 14.6838
1 13.2438 13.2366 16.2601
2 13.2473 11.3106 16.6639
1 11.3198 11.3111 17.0669
1 13.2448 11.293 18.6438
2 11.3174 11.3038 19.0486
1 11.3324 13.2263 19.45
1 11.3042 11.3076 21.029
2 11.2994 13.2289 21.4425
1 13.2381 13.2033 21.863
1 11.3074 13.2205 23.4201
2 13.2345 13.2246 23.8522
1 13.2351 11.3043 24.2715
1 13.3038 13.2245 25.8537
2 13.2593 11.3111 26.2611
1 11.3529 11.4616 26.6905
1 13.2719 11.2792 28.2482
2 11.1845 15.1699 28.6092
1 11.5099 17.0858 0.261798
1 11.2502 15.2159 1.86612
2 11.353 17.175 2.26259
1 13.2537 16.9518 2.76218
1 11.3118 17.1547 4.2786
2 13.2351 17.0899 4.71704
1 13.2349 15.1647 5.12306
1 13.2268 17.1013 6.68715
2 13.2353 15.1561 7.08804
1 11.3015 15.1709 7.48694
1 13.2071 15.0405 9.03438
2 11.3003 15.1524 9.47312
1 11.32 17.0854 9.85994
1 11.3149 15.169 11.4545
2 11.305 17.0891 11.8676
1 13.2207 17.0995 12.3388
1 11.2965 17.0764 13.8683
2 13.2304 17.0923 14.2901
1 13.2304 15.1679 14.6932
1 13.2533 17.083 16.2894
2 13.2459 15.1608 16.6677
1 11.3198 15.1746 17.0615
1 13.2418 15.1628 18.6383
2 11.3182 15.1728 19.0493
1 11.3678 17.1089 19.4801
1 11.1796 15.1285 20.9946
2 11.4225 17.1069 21.4696
1 13.2043 17.8585 21.8706
1 11.2939 17.0901 23.4463
2 13.3464 17.0997 23.7273
1 13.1108 15.0997 24.3356
1 13.2972 17.0982 25.8234
2 13.2421 15.1723 26.2573
1 11.3254 15.1651 26.6422
1 13.2657 15.1534 28.2125
2 11.3673 19.0354 -0.0551801
1 11.2547 20.963 0.369633
1 12.1606 19.0812 1.90908
2 11.1417 20.7818 2.31556
1 13.3118 21.1212 2.7761
1 11.3442 20.9111 4.29918
2 13.2573 20.9791 4.70036
1 13.2614 19.0315 5.1
1 13.2806 20.9631 6.66093
2 13.2607 19.0451 7.07807
1 11.3433 19.0291 7.48454
1 13.2165 19.1516 9.03756
2 11.3187 19.0518 9.4784
1 11.3426 20.9838 9.92861
1 11.1896 18.98 11.42
2 11.4204 20.9705 11.9049
1 13.2112 21.7308 12.295
1 11.3048 20.9722 13.8841
2 13.3643 20.9761 14.1526
1 13.1215 18.9757 14.7661
1 13.2933 20.9729 16.2533
2 13.2293 19.0421 16.6803
1 11.3029 19.0414 17.0905
1 13.2366 19.0535 18.6408
2 11.3024 19.0437 19.0625
1 11.326 20.9893 19.4556
1 11.171 19.0903 21.0038
2 11.2889 20.9907 21.4438
1 13.2326 21.012 21.8616
1 11.2938 20.9968 23.4156
2 13.2263 20.9758 23.8298
1 13.0872 19.0626 24.2972
1 13.2648 20.9095 25.7591
2 13.2395 19.0176 26.224
1 11.2988 18.9968 26.6739
1 13.286 19.0825 28.158
2 11.3266 22.9019 28.5559
1 11.2865 24.8948 0.343525
1 11.4522 22.9809 1.7966
2 11.3021 24.853 2.28359
1 13.2285 24.8747 2.71274
1 11.3103 24.8296 4.22273
2 13.2086 24.8311 4.69761
1 13.2439 22.8988 5.11078
1 13.1127 24.7953 6.65109
2 13.2396 22.8845 7.09505
1 11.342 22.7569 7.54875
1 13.2555 22.9322 9.08279
2 11.3003 22.8995 9.48809
1 11.3291 24.8501 9.87759
1 11.1699 22.9579 11.4303
2 11.2989 24.8508 11.8673
1 13.2441 24.8459 12.2893
1 11.3034 24.8479 13.8436
2 13.2319 24.8468 14.2779
1 13.125 22.9688 14.761
1 13.2494 24.8607 16.2869
2 13.2278 22.9045 16.6803
1 11.3099 22.8949 17.0979
1 13.2382 22.9198 18.6529
2 11.3119 22.9153 19.0664
1 11.3152 24.8406 19.4712
1 11.3076 22.9112 21.0387
2 11.3137 24.8364 21.451
1 13.2451 24.8284 21.8593
1 11.3139 24.8489 23.4269
2 13.2485 24.8507 23.8231
1 13.242 22.9132 24.2831
1 13.2526 24.9395 25.7402
2 13.2539 22.9106 26.2886
1 11.3255 23.6587 26.7185
1 13.257 22.9097 28.2565
2 15.1771 -0.265431 28.6394
1 15.1754 1.66124 0.309623
1 15.1668 -0.253297 1.89623
2 15.1709 1.66733 2.29217
1 17.1044 1.68192 2.69236
1 15.1707 1.66385 4.2646
2 17.1073 1.64949 4.65599
1 17.0392 26.736 5.0554
1 17.1783 1.58475 6.55817
2 16.9603 26.7315 7.08684
1 15.1459 0.340985 7.51157
1 17.1289 -0.272434 9.07303
2 15.1808 26.753 9.39059
1 15.1709 1.65456 9.95576
1 15.1959 26.763 11.4932
2 15.1893 1.6597 11.8824
1 17.1069 1.66824 12.2839
1 15.206 1.65267 13.8678
2 17.1149 1.64488 14.272
1 17.0878 26.7616 14.6907
1 17.1155 1.66001 16.2481
2 17.0971 -0.263512 16.6657
1 15.1694 -0.249913 17.0813
1 17.0988 26.7619 18.6375
2 15.172 -0.27146 19.0609
1 15.1769 1.65764 19.4798
1 15.1495 26.7591 21.0403
2 15.1602 1.64692 21.4619
1 17.0508 1.56608 21.9142
1 15.1569 1.6812 23.4572
2 17.1016 1.65581 23.8575
1 17.0927 -0.261041 24.2658
1 17.1192 1.66832 25.8329
2 17.1237 -0.259373 26.2491
1 15.1901 -0.230223 26.6527
1 17.1075 -0.269019 28.2338
2 15.1797 3.58847 28.6387
1 15.1773 5.51727 0.309138
1 15.1754 3.59173 1.88172
2 15.1729 5.51912 2.28979
1 17.1057 5.52218 2.69407
1 15.1737 5.53538 4.26539
2 17.1101 5.53828 4.65706
1 17.1111 3.59931 5.11018
1 17.111 5.6151 6.57299
2 17.1314 3.59618 7.12759
1 15.1261 4.49509 7.61912
1 17.0913 3.57267 9.11053
2 15.1668 3.60304 9.39384
1 15.1668 5.55696 9.96987
1 15.167 3.59719 11.4874
2 15.1683 5.52425 11.8982
1 17.0855 5.52187 12.3078
1 15.1648 5.52523 13.8739
2 17.0915 5.53485 14.2807
1 17.1004 3.59073 14.6743
1 17.1116 5.52 16.2512
2 17.1054 3.58869 16.6575
1 15.1618 3.59048 17.0584
1 17.0561 3.58966 18.6089
2 15.1654 3.58848 19.0657
1 15.1766 5.52044 19.4781
1 15.1546 3.59191 21.0565
2 15.1679 5.53358 21.4616
1 17.0688 5.643 21.9083
1 15.165 5.5136 23.4541
2 17.1061 5.53401 23.8588
1 17.0978 3.59372 24.2586
1 17.1124 5.52095 25.8368
2 17.1099 3.59182 26.2424
1 15.182 3.5844 26.656
1 17.1063 3.59742 28.2258
2 15.1904 7.44899 -0.0947622
1 15.2098 9.37865 0.311873
1 15.1941 7.4499 1.88385
2 15.2664 9.38185 2.28376
1 17.143 9.38442 2.69854
1 15.2181 9.40079 4.29798
2 17.1286 9.40405 4.68479
1 17.1114 7.4918 5.05056
1 17.1066 9.39796 6.6692
2 17.1079 7.4819 7.06911
1 15.1677 7.49695 7.49357
1 17.1064 7.44251 9.04462
2 15.1818 7.45402 9.48228
1 15.1732 9.38114 9.88378
1 15.1706 7.47123 11.4843
2 15.1532 9.39044 11.8701
1 17.059 9.38705 12.2829
1 15.1335 9.39441 13.8641
2 17.0111 9.3873 14.293
1 17.0603 7.46567 14.6965
1 17.093 9.3818 16.2722
2 17.1042 7.44985 16.6722
1 15.1739 7.44637 17.0792
1 17.1046 7.45434 18.6491
2 15.1743 7.44962 19.0599
1 15.1817 9.37644 19.4634
1 15.1516 7.46099 21.0383
2 15.1811 9.38199 21.4516
1 17.1097 9.37926 21.8681
1 15.1766 9.38113 23.4383
2 17.1098 9.3809 23.8529
1 17.1127 7.45689 24.2783
1 17.1096 9.38096 25.8416
2 17.1112 7.45233 26.2539
1 15.1851 7.44482 26.6617
1 17.1133 7.4495 28.232
2 15.1912 11.3086 -0.0957742
1 15.1813 13.2361 0.308892
1 15.1931 11.3131 1.88502
2 15.1808 13.2405 2.29613
1 17.1111 13.2224 2.7072
1 15.181 13.2466 4.28309
2 17.1088 13.2402 4.67965
1 17.1182 11.3172 5.09171
1 17.0961 13.2343 6.64735
2 17.1046 11.3194 7.0818
1 15.1727 11.3199 7.49341
1 17.0903 11.3412 9.05971
2 15.1698 11.322 9.47571
1 15.1751 13.2503 9.90936
1 15.1392 11.3079 11.4516
2 15.1642 13.2312 11.8843
1 17.0668 13.1146 12.331
1 15.1607 13.2478 13.8798
2 17.1035 13.2302 14.2794
1 17.0968 11.3083 14.7032
1 17.1122 13.2395 16.2602
2 17.1081 11.3127 16.6762
1 15.1758 11.3041 17.0697
1 17.1108 11.2962 18.6476
2 15.1773 11.289 19.0468
1 15.1783 13.1967 19.4146
1 15.1811 11.3035 21.0371
2 15.1797 13.2109 21.4491
1 17.1219 13.2047 21.8675
1 15.1793 13.2258 23.4393
2 17.1241 13.2263 23.8564
1 17.1142 11.3066 24.2667
1 17.0951 13.2142 25.8679
2 17.1098 11.3006 26.2541
1 15.1851 11.2997 26.6622
1 17.1129 11.3004 28.2335
2 15.1777 15.1693 -0.0974059
1 15.1556 17.1091 0.313012
1 15.1943 15.1606 1.8742
2 15.0971 17.0859 2.29033
1 16.9531 17.0939 2.7749
1 15.1499 17.1142 4.32719
2 17.0782 17.1072 4.71859
1 17.1039 15.17 5.08876
1 17.0648 17.0913 6.68657
2 17.1 15.1549 7.06205
1 15.1587 15.2183 7.49507